<?xml version="1.0"?>
<VTKFile type="UnstructuredGrid"  version="0.1"  >
<UnstructuredGrid>
<Piece  NumberOfPoints="237" NumberOfCells="422">
<Points>
<DataArray  type="Float64"  NumberOfComponents="3"  format="ascii">0.5 0 0  3 0 0  0.4883102778550433 0.1074852201055122 0  0.4537877098354784 0.2099445507801326 0  0.3980465328528216 0.302587107596883 0  0.3236931423909133 0.3810810275638186 0  0.2342042203498944 0.4417560222230118 0  0.1337641692646094 0.4817749962596117 0  0.02706945429270747 0.499266706925562 0  -0.08089099827638369 0.4934132612707628 0  -0.1850690776699587 0.4644883599083952 0  -0.2805935326811922 0.4138444990784446 0  -0.3629977459615664 0.3438497294267107 0  -0.4284285880837952 0.2577769285885099 0  -0.4738265855914016 0.1596507650679891 0  -0.4970689785771799 0.05405950921197008 0  -0.4970689785771797 -0.05405950921197172 0  -0.473826585591401 -0.1596507650679908 0  -0.428428588083794 -0.2577769285885119 0  -0.3629977459615645 -0.3438497294267127 0  -0.2805935326811901 -0.4138444990784459 0  -0.185069077669956 -0.4644883599083962 0  -0.08089099827638106 -0.4934132612707633 0  0.02706945429270968 -0.4992667069255619 0  0.1337641692646113 -0.4817749962596112 0  0.234204220349896 -0.441756022223011 0  0.3236931423909143 -0.3810810275638178 0  0.3980465328528223 -0.3025871075968821 0  0.4537877098354786 -0.2099445507801321 0  0.4883102778550434 -0.1074852201055118 0  2.888751862043398 0.809390313471072 0  2.563258213639466 1.558751850106299 0  2.047659429655964 2.192507892834371 0  1.380195113193459 2.663655655207124 0  0.6103680391579052 2.937252263046968 0  -0.204727240094008 2.993006307571618 0  -1.004638836512953 2.826782766356463 0  -1.730040966344597 2.450909679031329 0  -2.327133872113255 1.893263832978164 0  -2.751633904516356 1.195203269538733 0  -2.97205783810899 0.4084999472887531 0  -2.972057838108994 -0.4084999472887274 0  -2.751633904516365 -1.19520326953871 0  -2.32713387211327 -1.893263832978145 0  -1.730040966344617 -2.450909679031315 0  -1.004638836512979 -2.826782766356454 0  -0.2047272400940353 -2.993006307571616 0  0.6103680391578843 -2.937252263046972 0  1.380195113193443 -2.663655655207132 0  2.047659429655955 -2.192507892834379 0  2.563258213639461 -1.558751850106308 0  2.888751862043396 -0.8093903134710783 0  -1.767684724377953 -6.646780681563615e-15 0  -1.257199016870178 0.9556978463345831 0  -1.25719901687017 -0.9556978463345864 0  -0.3948725084240564 -1.422202240816042 0  -0.3605132413774665 1.417731645860951 0  0.5424358244447121 -1.264847110707941 0  1.089914450023635 -0.7302646770089058 0  0.5264584872080592 1.321311168574672 0  1.195793407945047 0.7194850215414993 0  1.097295490986359 0.1252095458172549 0  -1.152846344390411 0.2545876253075816 0  -0.8481209338371735 0.6168167777053817 0  -0.9746385684484243 -0.2064274018038043 0  -0.7006119971238647 -0.9067043713340255 0  -0.2668785655885244 -0.9128867282589435 0  -0.42599260556638 0.8035072922694378 0  0.1442771747030271 -0.8800518328865292 0  -0.04642096156487848 0.8531522647222947 0  0.4507587618936389 -0.6677060246234563 0  0.6400218337347843 0.8619679452626656 0  0.7805553354038728 0.469644562828361 0  0.9087792816783088 -0.3062033917256691 0  -0.6139833158502128 -0.4690617731849784 0  -0.8115614009671039 0.1786381728339966 0  1.967793814766653 -0.2074522850939329 0  0.2874254019876754 0.7141565230041064 0  -0.3355875277110096 -0.6994908547696262 0  0.1466474090814086 2.118241637008333 0  0.2858871855195743 -2.002662541927696 0  1.379002475242633 -1.59636649773669 0  1.379002475242629 1.596366497736697 0  0.670555108935631 -0.3954806032854277 0  0.778129041842705 -0.08445052111031355 0  -0.4787647669922391 0.5747215012380683 0  -0.0316104988034212 -0.7450692674160214 0  -1.16116821889433 -1.808437457373129 0  -1.161168218894338 1.808437457373123 0  -1.045011004576224 -0.5785475890115059 0  -0.7453826999591415 -0.1627772335363134 0  -0.6529477604818374 0.3777410914244727 0  -0.8812214439227356 1.067657204737798 0  -0.2033331633183529 0.7227937626446651 0  0.2691668561904764 -0.6873010761524571 0  0.7227480110467748 0.2464720446598803 0  0.5547473509929395 0.516759387922936 0  -2.053844044912522 0.7670387262498106 0  -2.003974802999125 -0.7285476500659068 0  2.047881464557024 0.6588207986641229 0  1.411268684712689 -0.1059911355304222 0  2.037119932077597 -1.143380594441133 0  -0.08998634989669638 -1.355445940756727 0  -0.8817762506280331 -1.273578947847062 0  0.09173847047641893 1.387239120522835 0  -1.475223277302995 -0.3549397578410918 0  0.1134159158928541 0.7026511712622796 0  0.8699175189555473 1.062544191569904 0  0.8777703679051336 -1.024932216290226 0  0.7964650400360843 1.943189246686469 0  0.8094569500337826 -1.925925514729095 0  -0.5442390507830408 -2.07761537515672 0  -0.5145250373725185 1.960681971983203 0  -0.4437328186303723 -0.5330349717912278 0  -0.5921022337066789 -0.272793250295166 0  -0.6993503378969781 0.0009538748445481894 0  0.6339185332573803 -0.2135920226996129 0  -0.1623198458485476 -0.6196095920283631 0  0.5103848353414173 -0.4819940804162745 0  1.807468674397703 0.2522858135571854 0  -0.3044291652934213 0.5752694515136575 0  0.3660026474795697 0.532575969529256 0  0.1046685797699385 -0.6369710701232378 0  -1.587961745642348 0.5929310957504447 0  -1.812172110333958 -1.495233760619311 0  -1.794117591492242 1.459258144845505 0  0.2633609238844246 1.109723316625987 0  0.6509124815768298 0.07130852952338075 0  0.5619560673238037 0.3373446009519762 0  0.8108028583949094 -0.7481512630860866 0  -0.6156593787456101 0.1278072122524405 0  -0.03435588860773892 0.6336570801616236 0  -0.4686897150654519 -0.3855277235787353 0  -0.5598208459078143 0.256437531438149 0  -1.155354792756947 0.5887210238635872 0  -0.3002323978790673 1.115837777847255 0  1.712339565937337 1.106173277550824 0  0.3468800379302367 -0.5163254493873169 0  -0.4980252689960583 0.3889537033229297 0  0.2127388460031817 0.5768897504068793 0  0.206062986006298 -1.605036638905572 0  -0.5146181825366312 -1.102876163718617 0  0.4239564776855014 -1.03887700368198 0  -0.8456758876005253 -0.0137360757916337 0  -0.7983333747543238 -0.3877804406234391 0  0.8536969924984187 0.09454062271427023 0  -0.873773032290782 0.3827721364247795 0  -2.366768519115387 0.2133977919248151 0  0.3676075462089928 1.681086699874878 0  -0.5533046918279545 -0.6689840346997602 0  0.9000846509359803 -1.436407788982554 0  0.8764197554861155 0.6997422422092227 0  -1.255517083760869 -0.05649241943493929 0  1.235003468603343 -1.128700076133464 0  -0.2963660651168608 -0.5278529942936456 0  -0.7850460528310872 1.446803022431139 0  0.6102540669063917 -0.06684384687841149 0  1.612774874074416 -0.7059726917773073 0  0.5139628576384053 -0.3331136197616628 0  -0.3880509826442395 0.4612170494495303 0  -0.5961946790765111 -0.1080544805444825 0  -0.07719564709009774 1.706096122163926 0  -0.4742001929575969 -0.8581884305561944 0  -1.48232636648512 0.2482433891669049 0  -0.6502422959583913 0.7499644339576078 0  -0.03131049299897808 -0.6033855522027971 0  0.8811194774643718 1.46856184526043 0  0.1572164719820546 0.9001806161377379 0  -0.7346285401341218 -1.701409793282342 0  -1.622708634630921 -0.7228102846976431 0  -1.369942544873237 -1.419396063773191 0  1.966898705293406 1.534631560737628 0  -2.217583304696758 -0.2930480553692461 0  -0.06222525914457256 -0.9634519959226924 0  0.4429345281881048 0.4182714874813784 0  0.6490366948381781 -0.6149963028537995 0  2.412934003701433 0.1958708087066815 0  1.067510840305537 0.430403143998822 0  1.971891087020974 -1.601510315896145 0  -0.1614778115332274 0.5815905146731417 0  1.035901857044101 -0.1184333124149866 0  -0.2540934919209661 0.915813497520612 0  0.2209980342927933 -0.5569765178970312 0  -1.31575450652553 1.37587591591842 0  -0.9596233097331008 0.808548834529925 0  0.5797001933250209 0.1953237369720122 0  1.567682539436839 0.6810778875517421 0  -0.2097075642198189 -1.812623590648203 0  -1.699360962798985 1.032261962420269 0  -1.817434948801551 -0.4198691495947789 0  -0.5448700002622111 1.039873352720782 0  -0.9625743095197873 -0.8832953431353061 0  0.1903670725980784 -1.125584560411437 0  2.354661814328994 -0.6041538465975825 0  -0.2657161731180962 -1.151372613894604 0  0.6722508055653726 0.6470208949459031 0  -1.953179122533321 0.3676956867454222 0  1.27151978868599 -2.145164728665482 0  1.270194083584181 2.146926333967254 0  0.5349315924601183 1.051931621710678 0  0.3406225648293379 -0.8599414910826342 0  1.273788727986369 1.094970172208678 0  -0.7789697822753943 -0.6490622586648358 0  -0.6975524849999871 0.2493157275699743 0  -0.9943805958823149 0.1128517554771253 0  0.4825578730463529 0.6960987011975044 0  -1.203590716878933 -0.3699146455646978 0  1.147398981171892 -0.4082235515952889 0  -1.336228456061512 -0.6311283272711967 0  -1.047803375213439 2.246784121693012 0  -1.010321294607305 -2.275109238515873 0  0.6893647253541073 -2.360745390873388 0  0.643766374103219 2.393611263492352 0  2.235825962294126 1.133553560105989 0  -0.6379080266524401 0.53901810808873 0  -1.621484447065929 1.917966166941178 0  -1.623595749093578 -1.924515054237788 0  0.9001149699627482 0.281231218326095 0  -2.192856736301526 -1.195267116401628 0  -2.209294956523966 1.191693473963755 0  -0.04938164682552457 1.117288934691601 0  -1.680728965951571 -1.090982738473088 0  0.09052649936912274 0.5788479410031913 0  -0.1795825255607129 -0.7806171726186019 0  1.357836606297362 0.3504117128226802 0  1.629487163838248 -1.263237290584778 0  0.3748991985177764 0.9041114865201595 0  0.6259638649652673 -0.9141697445971092 0  -0.1968831275564237 -2.449461153193627 0  -0.1958446666929122 2.496622904450278 0  -2.465435782961534 0.6864278471921741 0  -2.427621317324554 -0.7641132077328439 0  0.5487855193880694 -1.646975919050572 0  -0.370475975491088 -0.4408219836337535 0  0.8794145625070924 -0.5338866315925296 0  -0.5810684705746918 0.004141321310500927 0  0.4185934812307592 -0.4030202569451908 0  </DataArray>
</Points>
<Cells>
<DataArray  type="UInt32"  Name="connectivity"  format="ascii">62 134 163  64 89 144  28 29 116  57 140 192  17 18 114  102 140 192  56 112 155  65 103 141  71 107 199  65 103 191  21 22 117  92 155 190  5 6 121  55 102 187  10 11 120  61 100 224  59 148 166  56 135 220  56 112 161  56 155 190  76 100 119  58 153 157  23 24 122  75 115 130  76 119 176  50 101 193  67 85 120  67 93 120  61 100 180  0 2 127  3 4 128  69 106 131  76 176 193  99 119 176  64 143 204  58 129 234  71 107 151  59 104 126  102 140 187  123 134 163  63 134 146  70 118 137  53 123 134  73 84 116  53 92 183  76 100 157  49 81 178  73 83 116  68 86 122  32 82 198  49 81 197  32 82 171  52 105 152  1 176 193  34 212 229  47 211 228  56 104 220  100 119 224  62 134 146  68 94 122  79 212 229  80 211 228  41 147 172  14 15 130  64 89 206  107 166 201  52 152 163  59 104 148  58 108 129  30 99 213  88 112 155  55 103 141  89 144 202  53 183 188  69 93 131  59 107 199  91 146 214  63 164 184  8 9 131  57 142 227  58 157 207  57 108 227  64 152 204  58 207 234  17 114 160  111 210 228  112 209 229  153 157 225  57 108 150  54 103 191  79 112 161  92 164 184  30 99 176  50 51 193  92 164 190  74 114 132  18 19 132  22 117 165  92 155 183  25 26 137  70 94 137  76 157 193  18 114 132  21 117 154  34 35 229  46 47 228  100 180 207  29 116 156  75 146 204  72 151 177  11 120 159  75 115 143  28 116 158  53 92 184  100 157 207  81 110 150  85 138 214  59 126 199  40 41 147  6 7 139  66 78 223  74 113 132  13 14 133  20 21 154  73 180 207  23 122 165  10 120 179  0 29 156  79 109 148  12 13 138  67 181 190  27 28 158  45 210 228  36 209 229  5 121 174  80 110 232  82 109 166  109 148 166  67 164 190  24 122 182  1 51 193  60 177 224  69 167 220  80 140 232  66 141 162  82 166 201  6 121 139  60 107 151  70 175 227  58 108 153  74 144 202  16 17 160  101 157 193  0 127 156  14 130 133  63 146 214  11 12 159  55 103 168  4 128 174  85 138 159  69 106 167  125 183 188  52 147 196  30 31 213  54 103 170  56 135 190  59 107 166  15 130 235  56 104 161  33 198 212  48 197 211  91 138 214  60 186 224  72 96 128  66 173 194  50 101 178  53 123 188  88 183 215  109 198 212  110 197 211  63 134 184  74 114 144  87 103 168  87 103 170  57 142 192  2 127 185  91 146 203  68 192 200  3 128 185  125 183 215  65 141 162  66 78 162  68 173 192  70 118 175  22 23 165  74 113 149  52 147 172  62 146 204  4 5 174  45 46 228  35 36 229  67 85 164  55 168 187  13 133 138  126 167 220  75 130 203  72 95 128  64 90 143  12 138 159  41 172 231  9 131 179  8 131 222  75 146 203  90 115 143  33 34 212  47 48 211  129 175 227  67 93 181  54 89 191  87 210 216  88 209 215  80 187 228  77 205 226  78 117 223  64 90 144  19 132 233  60 186 201  2 3 185  9 10 179  64 152 206  60 151 177  74 149 202  62 152 163  55 102 194  102 173 194  68 86 173  98 218 221  82 109 198  81 110 197  25 137 182  87 168 210  20 154 233  82 136 171  24 25 182  90 114 144  135 181 190  102 173 192  111 187 228  1 30 176  26 137 236  108 150 153  68 94 200  73 207 234  57 150 232  66 141 194  78 113 149  7 139 222  32 33 198  48 49 197  69 181 220  16 160 235  88 112 209  97 196 230  111 168 210  82 136 201  104 148 161  62 152 204  87 170 216  60 107 201  27 158 236  44 45 210  36 37 209  77 121 205  54 89 208  79 109 212  80 110 211  79 112 229  124 170 216  123 163 196  70 200 227  44 210 216  37 209 215  39 40 230  78 117 154  125 188 219  57 140 232  147 196 230  52 163 196  31 32 171  71 151 195  77 121 139  43 44 216  37 38 215  99 119 186  52 105 189  38 39 219  42 43 218  49 50 178  41 42 231  124 218 221  43 124 216  38 125 215  101 157 225  85 120 159  142 192 200  84 127 145  97 188 219  90 115 160  38 125 219  43 124 218  69 93 181  77 106 167  78 113 154  90 114 160  73 84 180  70 94 200  72 151 195  98 169 221  86 117 165  86 122 165  99 136 186  77 106 139  79 148 161  78 149 162  73 83 234  65 149 202  65 191 202  93 131 179  110 150 232  95 127 145  97 123 188  81 150 153  80 140 187  91 133 138  71 205 226  135 181 220  115 130 235  53 134 184  94 137 182  142 200 227  104 126 220  83 118 175  115 160 235  97 123 196  108 129 227  93 120 179  77 167 226  98 218 231  86 173 223  7 8 222  84 127 156  105 169 208  136 186 201  105 169 189  111 168 187  85 164 214  54 169 208  94 122 182  72 96 195  113 154 233  65 149 162  84 116 156  19 20 233  83 118 158  52 172 189  119 186 224  54 170 221  105 152 206  99 136 213  15 16 235  83 116 158  89 191 202  26 27 236  96 121 174  72 177 217  97 219 230  113 132 233  54 169 221  86 117 223  96 121 205  84 145 180  81 178 225  106 131 222  75 143 204  96 128 174  88 155 183  106 139 222  61 177 217  130 133 203  55 141 194  101 178 225  136 171 213  118 158 236  81 153 225  42 218 231  96 195 205  72 95 217  118 137 236  98 172 189  83 175 234  61 177 224  98 169 189  89 206 208  66 173 223  95 127 185  91 133 203  95 128 185  31 171 213  61 145 217  126 167 226  71 199 226  63 164 214  98 172 231  40 147 230  39 219 230  124 170 221  95 145 217  126 199 226  105 206 208  71 195 205  61 145 180  129 175 234  </DataArray>
<DataArray  type="UInt32"  Name="offsets"  format="ascii">3 6 9 12 15 18 21 24 27 30 33 36 39 42 45 48 51 54 57 60 63 66 69 72 75 78 81 84 87 90 93 96 99 102 105 108 111 114 117 120 123 126 129 132 135 138 141 144 147 150 153 156 159 162 165 168 171 174 177 180 183 186 189 192 195 198 201 204 207 210 213 216 219 222 225 228 231 234 237 240 243 246 249 252 255 258 261 264 267 270 273 276 279 282 285 288 291 294 297 300 303 306 309 312 315 318 321 324 327 330 333 336 339 342 345 348 351 354 357 360 363 366 369 372 375 378 381 384 387 390 393 396 399 402 405 408 411 414 417 420 423 426 429 432 435 438 441 444 447 450 453 456 459 462 465 468 471 474 477 480 483 486 489 492 495 498 501 504 507 510 513 516 519 522 525 528 531 534 537 540 543 546 549 552 555 558 561 564 567 570 573 576 579 582 585 588 591 594 597 600 603 606 609 612 615 618 621 624 627 630 633 636 639 642 645 648 651 654 657 660 663 666 669 672 675 678 681 684 687 690 693 696 699 702 705 708 711 714 717 720 723 726 729 732 735 738 741 744 747 750 753 756 759 762 765 768 771 774 777 780 783 786 789 792 795 798 801 804 807 810 813 816 819 822 825 828 831 834 837 840 843 846 849 852 855 858 861 864 867 870 873 876 879 882 885 888 891 894 897 900 903 906 909 912 915 918 921 924 927 930 933 936 939 942 945 948 951 954 957 960 963 966 969 972 975 978 981 984 987 990 993 996 999 1002 1005 1008 1011 1014 1017 1020 1023 1026 1029 1032 1035 1038 1041 1044 1047 1050 1053 1056 1059 1062 1065 1068 1071 1074 1077 1080 1083 1086 1089 1092 1095 1098 1101 1104 1107 1110 1113 1116 1119 1122 1125 1128 1131 1134 1137 1140 1143 1146 1149 1152 1155 1158 1161 1164 1167 1170 1173 1176 1179 1182 1185 1188 1191 1194 1197 1200 1203 1206 1209 1212 1215 1218 1221 1224 1227 1230 1233 1236 1239 1242 1245 1248 1251 1254 1257 1260 1263 1266 </DataArray>
<DataArray  type="UInt8"  Name="types"  format="ascii">5 5 5 5 5 5 5 5 5 5 5 5 5 5 5 5 5 5 5 5 5 5 5 5 5 5 5 5 5 5 5 5 5 5 5 5 5 5 5 5 5 5 5 5 5 5 5 5 5 5 5 5 5 5 5 5 5 5 5 5 5 5 5 5 5 5 5 5 5 5 5 5 5 5 5 5 5 5 5 5 5 5 5 5 5 5 5 5 5 5 5 5 5 5 5 5 5 5 5 5 5 5 5 5 5 5 5 5 5 5 5 5 5 5 5 5 5 5 5 5 5 5 5 5 5 5 5 5 5 5 5 5 5 5 5 5 5 5 5 5 5 5 5 5 5 5 5 5 5 5 5 5 5 5 5 5 5 5 5 5 5 5 5 5 5 5 5 5 5 5 5 5 5 5 5 5 5 5 5 5 5 5 5 5 5 5 5 5 5 5 5 5 5 5 5 5 5 5 5 5 5 5 5 5 5 5 5 5 5 5 5 5 5 5 5 5 5 5 5 5 5 5 5 5 5 5 5 5 5 5 5 5 5 5 5 5 5 5 5 5 5 5 5 5 5 5 5 5 5 5 5 5 5 5 5 5 5 5 5 5 5 5 5 5 5 5 5 5 5 5 5 5 5 5 5 5 5 5 5 5 5 5 5 5 5 5 5 5 5 5 5 5 5 5 5 5 5 5 5 5 5 5 5 5 5 5 5 5 5 5 5 5 5 5 5 5 5 5 5 5 5 5 5 5 5 5 5 5 5 5 5 5 5 5 5 5 5 5 5 5 5 5 5 5 5 5 5 5 5 5 5 5 5 5 5 5 5 5 5 5 5 5 5 5 5 5 5 5 5 5 5 5 5 5 5 5 5 5 5 5 5 5 5 5 5 5 5 5 5 5 5 5 5 5 5 5 5 5 5 5 5 5 5 5 5 5 5 5 5 5 5 5 5 5 5 5 5 5 5 5 5 5 </DataArray>
</Cells>
<PointData  Scalars="f_12"> 
<DataArray  type="Float64"  Name="f_12"  format="ascii">5.0000000000000000e+00  0.0000000000000000e+00  5.0000000000000000e+00  5.0000000000000000e+00  5.0000000000000000e+00  5.0000000000000000e+00  5.0000000000000000e+00  5.0000000000000000e+00  5.0000000000000000e+00  5.0000000000000000e+00  5.0000000000000000e+00  5.0000000000000000e+00  5.0000000000000000e+00  5.0000000000000000e+00  5.0000000000000000e+00  5.0000000000000000e+00  5.0000000000000000e+00  5.0000000000000000e+00  5.0000000000000000e+00  5.0000000000000000e+00  5.0000000000000000e+00  5.0000000000000000e+00  5.0000000000000000e+00  5.0000000000000000e+00  5.0000000000000000e+00  5.0000000000000000e+00  5.0000000000000000e+00  5.0000000000000000e+00  5.0000000000000000e+00  5.0000000000000000e+00  0.0000000000000000e+00  0.0000000000000000e+00  0.0000000000000000e+00  0.0000000000000000e+00  0.0000000000000000e+00  0.0000000000000000e+00  0.0000000000000000e+00  0.0000000000000000e+00  0.0000000000000000e+00  0.0000000000000000e+00  0.0000000000000000e+00  0.0000000000000000e+00  0.0000000000000000e+00  0.0000000000000000e+00  0.0000000000000000e+00  0.0000000000000000e+00  0.0000000000000000e+00  0.0000000000000000e+00  0.0000000000000000e+00  0.0000000000000000e+00  0.0000000000000000e+00  0.0000000000000000e+00  1.4685264163562279e+00  1.8017049995880143e+00  1.7952340412928802e+00  1.9858952757446660e+00  2.0055407929011375e+00  2.1873008670916771e+00  2.3083924924475965e+00  2.0861118273334700e+00  2.1436915654379196e+00  2.7852482514025461e+00  2.6051737572076665e+00  2.9376826045807634e+00  3.0854453971003082e+00  2.6805941417865156e+00  3.2054235140695684e+00  3.3260092709319196e+00  3.3797353565020400e+00  3.5001352156231511e+00  3.6647591238223316e+00  2.8654683927939235e+00  3.3167058420907432e+00  3.1740109414478694e+00  3.7855835684040846e+00  3.5786005428163308e+00  1.1623736396387403e+00  3.7976157356181757e+00  3.7741510906989046e+00  9.6999358990434770e-01  1.0964511420056389e+00  9.7816589611615357e-01  9.8056050588005661e-01  3.7686691382659516e+00  3.7525970598243457e+00  3.8808587828669991e+00  3.8865705358749869e+00  9.2752077310528303e-01  9.3611561499947160e-01  2.5715181630345940e+00  3.8218074370395021e+00  3.8496083705433333e+00  2.1546287177561645e+00  3.8737737056379271e+00  3.9196673158435957e+00  3.8264730836030889e+00  3.8457410894854482e+00  8.7571911408653547e-01  9.5656299011284751e-01  9.2818388609512259e-01  2.1029237578532176e+00  6.9681755460603412e-01  2.2081200781720769e+00  1.8470770539229286e+00  2.1529860387855622e+00  1.9096613193543830e+00  4.0175492177619949e+00  2.1856729822275516e+00  2.2361571046856419e+00  1.0055081073006635e+00  1.0184286699575775e+00  9.2925530358928832e-01  1.0934917726596654e+00  4.0910583163176053e+00  4.2551064639471576e+00  4.0686270117429055e+00  4.1765871157363685e+00  4.3107445944815348e+00  4.0577099503675891e+00  1.3902481620388412e+00  4.2552569805838862e+00  4.2829261521482094e+00  4.2784194959594011e+00  1.5972695941527244e+00  6.8026708635248967e-01  7.2470421931961848e-01  2.6943266893576432e+00  4.2462544211881141e+00  4.2372844639364580e+00  2.7896605836489026e+00  4.3548624932926048e+00  4.3293722099028340e+00  4.4595954770315114e+00  4.4205276598104488e+00  2.3420252362334462e+00  2.6614705910470824e+00  1.0865428279613281e+00  4.3882356072365623e+00  4.3446332942258961e+00  4.4244669466458868e+00  1.7206354033383422e+00  2.5133456417226991e+00  2.7467408734420591e+00  3.5329302072751356e+00  3.3949882477502449e+00  3.4899822618797351e+00  3.1988480081057311e+00  6.4599147741234964e-01  1.5530244254934626e+00  3.4611631172118584e+00  1.5905341253525396e+00  2.7440079650057307e+00  2.4214750404230450e+00  1.6403624907860463e+00  4.4658753797268398e+00  1.6766965182752602e+00  4.4293685892348122e+00  1.4898162412210800e+00  4.4353652893060813e+00  4.4799203367439064e+00  4.4653370208955234e+00  1.5722775794078914e+00  3.1219098406124948e+00  1.9366407176475253e+00  3.0802389627115696e+00  4.4736778375044368e+00  1.5698514815169760e+00  3.3147195632321473e+00  1.3438822605168097e+00  1.4680030152089194e+00  1.1701363174512276e+00  5.2002041997767967e-01  8.1368053632140502e-01  3.1544193044360758e+00  4.4519622424594871e+00  3.3847150759019144e+00  6.0734793531049713e-01  2.6770119158794894e+00  4.7277158574616224e-01  4.4762485134727372e+00  2.9395479493964687e+00  3.2099055354510830e+00  4.4964551869498992e+00  1.2711025309860735e+00  2.4382259882980488e+00  4.4410782103230382e+00  1.5785717475085881e+00  1.3856373217692175e+00  1.1500457301447460e+00  1.3272133914146713e+00  2.6141344409611369e+00  2.3231974200401262e+00  2.6916967953977160e+00  5.8871662919456602e-01  2.6070594551195567e+00  3.2570090005414789e+00  1.1496468385465604e+00  5.2133696996855539e-01  5.2123857956013075e-01  2.6008937494094773e+00  3.2894547104178278e+00  1.6232979592121277e+00  3.0301517961225621e+00  3.9014232637327093e+00  3.0726221068900683e+00  3.5261970348469212e+00  2.4252752478058683e+00  2.5054045928287101e+00  1.9828116729098124e+00  5.3731361963004520e-01  5.2453481093540455e-01  5.6387971089949485e-01  5.3904760292431275e-01  5.0635264210397024e-01  3.5728828081098625e+00  4.9629340087600343e-01  4.8915522261591959e-01  3.2303223033209973e+00  5.0727977274685665e-01  4.9508049159967860e-01  2.7470819713163954e+00  1.1269184498416640e+00  4.5595324147365712e+00  3.6866296039887732e+00  2.1306072099257563e+00  1.0505479460416722e+00  3.1250184957961755e+00  2.7734919531610949e+00  5.6373109134701915e-01  5.1291841264162708e-01  4.3758525002592963e-01  4.5879069502557840e-01  1.5263234042294136e+00  4.6061335060401793e+00  2.9800834294706928e+00  4.5821480529411680e+00  4.5825399075540503e+00  </DataArray> 
</PointData> 
</Piece>
</UnstructuredGrid>
</VTKFile>