<?xml version="1.0"?>
<VTKFile type="UnstructuredGrid"  version="0.1"  >
<UnstructuredGrid>
<Piece  NumberOfPoints="408" NumberOfCells="764">
<Points>
<DataArray  type="Float64"  NumberOfComponents="3"  format="ascii">0.5 1.5 0  3 0 0  0.5 0 0  0.4883102778550433 1.607485220105512 0  0.4537877098354784 1.709944550780133 0  0.3980465328528216 1.802587107596883 0  0.3236931423909133 1.881081027563819 0  0.2342042203498944 1.941756022223012 0  0.1337641692646094 1.981774996259612 0  0.02706945429270747 1.999266706925562 0  -0.08089099827638369 1.993413261270763 0  -0.1850690776699587 1.964488359908395 0  -0.2805935326811922 1.913844499078444 0  -0.3629977459615664 1.843849729426711 0  -0.4284285880837952 1.75777692858851 0  -0.4738265855914016 1.659650765067989 0  -0.4970689785771799 1.55405950921197 0  -0.4970689785771797 1.445940490788028 0  -0.473826585591401 1.340349234932009 0  -0.428428588083794 1.242223071411488 0  -0.3629977459615645 1.156150270573287 0  -0.2805935326811901 1.086155500921554 0  -0.185069077669956 1.035511640091604 0  -0.08089099827638106 1.006586738729237 0  0.02706945429270968 1.000733293074438 0  0.1337641692646113 1.018225003740389 0  0.234204220349896 1.058243977776989 0  0.3236931423909143 1.118918972436182 0  0.3980465328528223 1.197412892403118 0  0.4537877098354786 1.290055449219868 0  0.4883102778550434 1.392514779894488 0  2.888751862043398 0.809390313471072 0  2.563258213639466 1.558751850106299 0  2.047659429655964 2.192507892834371 0  1.380195113193459 2.663655655207124 0  0.6103680391579052 2.937252263046968 0  -0.204727240094008 2.993006307571618 0  -1.004638836512953 2.826782766356463 0  -1.730040966344597 2.450909679031329 0  -2.327133872113255 1.893263832978164 0  -2.751633904516356 1.195203269538733 0  -2.97205783810899 0.4084999472887531 0  -2.972057838108994 -0.4084999472887274 0  -2.751633904516365 -1.19520326953871 0  -2.32713387211327 -1.893263832978145 0  -1.730040966344617 -2.450909679031315 0  -1.004638836512979 -2.826782766356454 0  -0.2047272400940353 -2.993006307571616 0  0.6103680391578843 -2.937252263046972 0  1.380195113193443 -2.663655655207132 0  2.047659429655955 -2.192507892834379 0  2.563258213639461 -1.558751850106308 0  2.888751862043396 -0.8093903134710783 0  0.4883102778550433 0.1074852201055122 0  0.4537877098354784 0.2099445507801326 0  0.3980465328528216 0.302587107596883 0  0.3236931423909133 0.3810810275638186 0  0.2342042203498944 0.4417560222230118 0  0.1337641692646094 0.4817749962596117 0  0.02706945429270747 0.499266706925562 0  -0.08089099827638369 0.4934132612707628 0  -0.1850690776699587 0.4644883599083952 0  -0.2805935326811922 0.4138444990784446 0  -0.3629977459615664 0.3438497294267107 0  -0.4284285880837952 0.2577769285885099 0  -0.4738265855914016 0.1596507650679891 0  -0.4970689785771799 0.05405950921197008 0  -0.4970689785771797 -0.05405950921197172 0  -0.473826585591401 -0.1596507650679908 0  -0.428428588083794 -0.2577769285885119 0  -0.3629977459615645 -0.3438497294267127 0  -0.2805935326811901 -0.4138444990784459 0  -0.185069077669956 -0.4644883599083962 0  -0.08089099827638106 -0.4934132612707633 0  0.02706945429270968 -0.4992667069255619 0  0.1337641692646113 -0.4817749962596112 0  0.234204220349896 -0.441756022223011 0  0.3236931423909143 -0.3810810275638178 0  0.3980465328528223 -0.3025871075968821 0  0.4537877098354786 -0.2099445507801321 0  0.4883102778550434 -0.1074852201055118 0  2.449326915020533 0.1445783015184512 0  0.1750768617923684 -1.591509227642119 0  -0.4956643426435631 1.856166633433662 0  -0.809975851913034 -1.885460640853531 0  -1.799750863548923 1.550134764991661 0  -1.087183982787626 -0.5958219679294048 0  -1.028707490683479 1.52121902021609 0  1.045620044294992 -0.332001343336091 0  -0.8789003920498543 0.02466298219083034 0  0.9055277058994466 -0.1285868844716475 0  -0.2538486964903905 0.5145594108492538 0  -0.256101149140612 0.9865834954926932 0  0.07993562842541392 0.8297943426768151 0  -2.164743063649349 1.150295891973621 0  -0.2540522329359374 -0.855457680517444 0  0.08821143208349357 0.6777288683670708 0  0.8790066392437215 1.596744565183638 0  1.623314403175982 -1.883510814994236 0  2.386528392374219 -0.6645724463228194 0  1.040901422784893 0.1725607721009028 0  0.6241478864384795 0.4797467320926844 0  1.18812818926081 1.671336521986154 0  0.5168262133478834 1.810935748950188 0  1.727263345707064 -0.07270495934963196 0  0.8010444450898847 0.6000420232784651 0  -0.7748321945140639 0.3904171569757778 0  1.965528156737208 1.680708233851678 0  -0.5154208596256235 -1.721391925154177 0  -0.05706358736588509 0.7255006763417958 0  -2.463474615809297 -0.7288096753849018 0  -1.073430983521223 -0.2179634885872086 0  -1.248875654762246 0.6320110901685018 0  -1.627645938836874 0.002989774528034386 0  0.1848437791166473 0.6942048927701073 0  -0.7807080782573537 -0.3611825939652471 0  1.406030105463165 0.4987925174071416 0  -0.5074193061801998 -0.9697103849113605 0  -0.1912483336597436 0.8286951204302155 0  -0.4474751240821551 0.3401617457817152 0  -1.167022811962334 2.289296103269721 0  1.110614328061611 -1.318611466149564 0  -0.196075919081523 0.6761447044873372 0  0.4944671807907145 1.20248896852999 0  -1.314149872912106 -1.013503821904706 0  0.7379299915934456 -1.176243621136708 0  0.09510223140120877 -0.5853553696170849 0  0.5840440236635634 1.559686360354062 0  -0.0765978966090201 0.8191258601986078 0  -0.2840189844668172 2.035716634936959 0  0.7555004387273055 -1.890687052307709 0  -0.5691817664408261 0.4967076842264466 0  -0.56918176644082 1.003292315773552 0  0.3317735478707203 -0.4882129537762074 0  -0.5842764112105829 -0.6525822495462413 0  -0.03083441414034562 0.9312926946600103 0  -1.053362385974071 0.2028579383100412 0  0.4863413636227473 -0.7677250049774836 0  -0.7855211116709919 1.110296603448821 0  -0.8923352622206268 -0.6443290947928575 0  0.1109779259793773 -2.37413704987551 0  1.502535281592789 1.455892239734784 0  2.298330576153535 0.8412935812841518 0  -0.2045887196443677 0.9440246415061334 0  -0.02308697232580337 0.5715348228938091 0  -0.1952893902985752 0.5584533194149995 0  0.4925335180614675 0.2935518745598275 0  -2.457488397186308 -0.1485907679793872 0  -1.05293690943693 -2.227587463738723 0  0.7379368251598651 1.20698769090819 0  -0.1604450137454393 -0.5748283362374303 0  -0.8082072468128376 0.6673879348354805 0  2.010650396633931 -1.397591251623339 0  0.5138874929738693 -0.3091837433225523 0  0.06524650947487896 0.5863344847941419 0  0.4458353252088276 1.099781228106647 0  -0.6006098008615811 1.630430873722895 0  -0.5288307849410533 0.8523812518506673 0  0.8138032632395098 -2.320703380826036 0  -0.4426707330600142 1.996235280693775 0  -0.5224714645911723 0.2747623252840583 0  0.6132804270770258 1.442232305109495 0  0.2471228984904126 0.751127474589491 0  -0.3796369282981906 0.8635536761241049 0  -0.8145192577886532 0.8301194030491461 0  -0.6389071042630297 1.492085055320969 0  -1.125885645773484 -1.267354082169429 0  -0.2676164795963016 0.7509486636036535 0  -0.3374671787028345 0.9774487029381743 0  -0.2857393037089104 -1.029107961274825 0  0.5489515188482416 2.428770706043216 0  0.6187140322041188 1.702700988928199 0  0.6882474728642003 -0.8663174988693458 0  0.4425513992650846 0.6337271957765251 0  -0.5295525567652274 0.6500162138404074 0  -0.9476699534659107 0.4712936002157391 0  0.8752559794743573 -0.5590429865758249 0  -0.9468517635324705 1.010443301372405 0  0.6322198234575112 0.06140152368918773 0  -1.663227701934871 -0.3120622505034063 0  0.638393649556794 0.8514612129035295 0  0.2405035349843025 0.5421729288360547 0  -0.0361088917084853 -0.634750040613719 0  -0.77081623718481 -1.491533805481315 0  0.4791447072839847 1.943078835226914 0  0.06773383579110327 0.9128789875304884 0  1.535552868162399 -1.347785079971206 0  -0.1161160164153445 -1.750338774140298 0  0.4627257681225037 -0.4383171298935182 0  -1.576523019350793 0.337462392451507 0  1.615579064438861 -0.4700726775756261 0  -0.3363568176916215 0.524117609991911 0  0.6496337470908508 0.6309476815480473 0  -0.5889146666661975 1.765765569223172 0  0.2310185371870591 -0.5809076164446545 0  1.689819737179052 0.7144244031104938 0  0.4448302526349333 0.4003351763128259 0  -1.666012317156402 1.141628119832077 0  -0.03897117799051896 2.157739399282022 0  -1.039806706977881 -0.008469356187555704 0  0.5953675849711842 1.292832786609411 0  1.019901375611165 0.9146520079185969 0  1.347683319947915 1.09665078923174 0  -0.6985563858036976 -0.7910624120479965 0  -0.2094919752891609 2.117918811689742 0  0.8613889924343612 0.3204202532371086 0  0.6066073833495678 -0.2052604431648903 0  -0.9396643060473252 -0.4346342465790589 0  -1.468981254193264 -0.7269649821871838 0  1.086822520251991 -0.08895113427640507 0  0.3674971586197148 0.7458155855599822 0  -0.3794300679513336 0.6380326831168662 0  1.043986692092218 2.245230122067591 0  1.601242035983665 0.2613788864633106 0  1.398248342214989 -0.9053027058218581 0  0.9738177402080297 0.5626591991823638 0  -0.3884836309919389 -0.457358287533149 0  -1.481917277537334 1.992889932127602 0  0.5968422411835189 -0.06491050543469785 0  1.270890020739223 0.1630724220674704 0  0.1750096762149981 -0.9451218425404133 0  -2.14382594739437 -1.245853763668495 0  -0.5948972366036021 0.0007219457462337329 0  0.2493325731664089 0.9555925233868314 0  0.01999832336855498 0.7580146038227706 0  -0.4045244859843793 0.43499251370204 0  0.561706624062054 0.2039814239055968 0  -1.758466681615456 -1.772448004860064 0  -0.4031644249033418 1.058173111097124 0  -2.38504553412258 0.511241112114327 0  -0.5341604634149192 1.237299345180669 0  0.9565857174750263 1.182314975627643 0  0.4465257213324729 0.8657010523769808 0  -0.5398263017218177 -0.24974230906837 0  0.4385935124205028 -1.450606430662467 0  -0.6501000342818676 -0.3007683035508803 0  -0.4122469826021566 0.7509933958794207 0  1.117740491137444 1.407300158944901 0  1.879439506543204 1.195802649416873 0  -0.4793047928368628 -0.552238137737468 0  -0.1968525780165699 
[...]
<PointData  Vectors="f_51"> 
<DataArray  type="Float64"  Name="f_51"  NumberOfComponents="3" format="ascii">1.8532329434151744e+00 1.8378765462489293e+00 0.0000000000000000e+00  2.7909667918013490e+00 3.0707813303452625e-02 0.0000000000000000e+00  1.6879746763649809e+01 1.0763700038673540e-01 0.0000000000000000e+00  2.8862096497021597e+00 2.3530094127742256e+00 0.0000000000000000e+00  2.7053886439506409e+00 2.7268575912465010e+00 0.0000000000000000e+00  2.8177637413958938e+00 3.5596466779245355e+00 0.0000000000000000e+00  3.0157225804248600e+00 4.9932797471814654e+00 0.0000000000000000e+00  1.7040404067137738e+00 4.2214923379195719e+00 0.0000000000000000e+00  1.3574656297707643e+00 6.4412605392161675e+00 0.0000000000000000e+00  1.6055996683983639e-01 5.2401349863231790e+00 0.0000000000000000e+00  -7.6025785076787766e-01 5.8282308780803254e+00 0.0000000000000000e+00  -1.3922013060777598e+00 4.7410791823966001e+00 0.0000000000000000e+00  -2.2153101562064172e+00 4.5306176009255239e+00 0.0000000000000000e+00  -2.6532770861591302e+00 3.9084205998488306e+00 0.0000000000000000e+00  -3.0786870969482640e+00 3.2630780579973964e+00 0.0000000000000000e+00  -2.5711428483100756e+00 2.4834669414517379e+00 0.0000000000000000e+00  -1.9972174223925403e+00 1.9602891948213093e+00 0.0000000000000000e+00  -1.8561839081441842e+00 1.8207797356993833e+00 0.0000000000000000e+00  -7.0893588264109053e-01 2.0415858028887457e+00 0.0000000000000000e+00  3.5300775218138825e-01 2.9381404720755038e+00 0.0000000000000000e+00  9.3973453046604649e-01 4.0200967117746336e+00 0.0000000000000000e+00  1.7118072616974416e+00 6.2456925329145374e+00 0.0000000000000000e+00  1.2777147571970635e+00 7.2991436614606497e+00 0.0000000000000000e+00  8.9659933455835228e-01 9.4745186665335588e+00 0.0000000000000000e+00  -2.4972797141600134e-01 8.9169712919916186e+00 0.0000000000000000e+00  -1.4053159752999480e+00 9.7130112148445669e+00 0.0000000000000000e+00  -1.4416208103384029e+00 6.4818599168036499e+00 0.0000000000000000e+00  -1.9064372552717135e+00 5.7755314549183110e+00 0.0000000000000000e+00  -5.6867063320813804e-01 3.2958229822494332e+00 0.0000000000000000e+00  2.6823788333732723e-01 2.3449497196862610e+00 0.0000000000000000e+00  1.2195956866246052e+00 1.8972497623515356e+00 0.0000000000000000e+00  2.6726075873354036e+00 7.5880366717038150e-01 0.0000000000000000e+00  2.3845488860868409e+00 1.4489929148289107e+00 0.0000000000000000e+00  1.9644227168556532e+00 2.1162650866043000e+00 0.0000000000000000e+00  1.4474645436410514e+00 2.7957228181967380e+00 0.0000000000000000e+00  7.3763190182134464e-01 3.5930678875189899e+00 0.0000000000000000e+00  -2.7304969550349489e-01 3.7225978060611222e+00 0.0000000000000000e+00  -1.1135397196466057e+00 3.1673046822552133e+00 0.0000000000000000e+00  -1.7241528315338992e+00 2.4182597288655150e+00 0.0000000000000000e+00  -2.2120700743976944e+00 1.8008095712580954e+00 0.0000000000000000e+00  -2.5457879141164157e+00 1.1138601813860360e+00 0.0000000000000000e+00  -2.7423765584107684e+00 3.8367948132094337e-01 0.0000000000000000e+00  -2.7387337795907096e+00 -3.6803651937780996e-01 0.0000000000000000e+00  -2.5421862595382638e+00 -1.1083410855951905e+00 0.0000000000000000e+00  -2.1522107553581660e+00 -1.7492559907258574e+00 0.0000000000000000e+00  -1.6119232939833781e+00 -2.2905609326334977e+00 0.0000000000000000e+00  -8.9998426387273234e-01 -2.5889708313123396e+00 0.0000000000000000e+00  -1.9468944148946163e-01 -2.7523040489076229e+00 0.0000000000000000e+00  5.6474933810980377e-01 -2.7289182192462356e+00 0.0000000000000000e+00  1.2600704447291144e+00 -2.4554915516837115e+00 0.0000000000000000e+00  1.8918811768492572e+00 -2.0387058756328051e+00 0.0000000000000000e+00  2.3752892711644940e+00 -1.4835520126336692e+00 0.0000000000000000e+00  2.5977034205885472e+00 -7.2773188824893886e-01 0.0000000000000000e+00  1.6627149019810769e+01 3.5879385975566982e+00 0.0000000000000000e+00  1.5674864811474650e+01 7.2277522976240256e+00 0.0000000000000000e+00  1.4013822707370005e+01 1.0691511702272825e+01 0.0000000000000000e+00  1.1692632403813976e+01 1.3867652936408128e+01 0.0000000000000000e+00  8.9339257108667613e+00 1.6660583333411441e+01 0.0000000000000000e+00  5.2029872393023489e+00 1.8957712904261307e+01 0.0000000000000000e+00  1.1630129997721650e+00 2.0281621590718601e+01 0.0000000000000000e+00  -3.3647774687817020e+00 1.9668429485752412e+01 0.0000000000000000e+00  -7.1695779713090397e+00 1.8109244456092075e+01 0.0000000000000000e+00  -1.0403426975361114e+01 1.5271300451360213e+01 0.0000000000000000e+00  -1.2968618586183350e+01 1.2370286833073889e+01 0.0000000000000000e+00  -1.4962871421183609e+01 8.9877224054469096e+00 0.0000000000000000e+00  -1.6223657847431245e+01 5.4182082350419725e+00 0.0000000000000000e+00  -1.6786451930704104e+01 1.9471798373767693e+00 0.0000000000000000e+00  -1.6737236046271722e+01 -1.9439534856074052e+00 0.0000000000000000e+00  -1.5949962238783142e+01 -5.2407812705102836e+00 0.0000000000000000e+00  -1.4284787086357310e+01 -8.7330479765792397e+00 0.0000000000000000e+00  -1.2226569559301099e+01 -1.1420769961119859e+01 0.0000000000000000e+00  -9.2892635036070850e+00 -1.3883378808936941e+01 0.0000000000000000e+00  -6.2977683923446808e+00 -1.5473205275947015e+01 0.0000000000000000e+00  -2.5830217710277728e+00 -1.6493594180440052e+01 0.0000000000000000e+00  7.6951737295926947e-01 -1.6690956057718612e+01 0.0000000000000000e+00  4.5788480743835489e+00 -1.6071072968841470e+01 0.0000000000000000e+00  7.7243202789074754e+00 -1.4816867863904262e+01 0.0000000000000000e+00  1.0920211803389824e+01 -1.2655113166778500e+01 0.0000000000000000e+00  1.3238091134693622e+01 -1.0226474583950511e+01 0.0000000000000000e+00  1.5255038767691383e+01 -6.9159627760925346e+00 0.0000000000000000e+00  1.6372410825684657e+01 -3.7213612221314607e+00 0.0000000000000000e+00  3.4071847251929954e+00 2.1728048003778155e-01 0.0000000000000000e+00  5.4131115913213157e-01 -5.1917153866777062e+00 0.0000000000000000e+00  -3.8155015613592798e+00 4.6398244221901459e+00 0.0000000000000000e+00  -1.5876936408691498e+00 -3.7504232428385715e+00 0.0000000000000000e+00  -2.7285854290400677e+00 2.2364588404512751e+00 0.0000000000000000e+00  -5.8986291381739306e+00 -3.2087875882059738e+00 0.0000000000000000e+00  -2.8263637105779136e+00 3.2399717173753650e+00 0.0000000000000000e+00  7.3121227621309393e+00 -2.2406622108959500e+00 0.0000000000000000e+00  -9.5812690680369226e+00 3.9598848910523743e-01 0.0000000000000000e+00  9.0997051019754576e+00 -1.2846508533307717e+00 0.0000000000000000e+00  -6.8931055898575471e+00 1.5112175966295620e+01 0.0000000000000000e+00  2.0120888526659946e+00 1.1806623155172360e+01 0.0000000000000000e+00  3.7520206071430229e-01 1.3516294682372900e+01 0.0000000000000000e+00  -3.0349123164018321e+00 1.5936720513193432e+00 0.0000000000000000e+00  -2.7495404100218526e+00 -9.0115867434372579e+00 0.0000000000000000e+00  1.3993122427383913e+00 1.5221331009485734e+01 0.0000000000000000e+00  2.7396312870235278e+00 3.2855474363918069e+00 0.0000000000000000e+00  2.1830231855666611e+00 -2.5894220503528951e+00 0.0000000000000000e+00  3.3149796095213571e+00 -9.2009225990417043e-01 0.0000000000000000e+00  7.8255486105326053e+00 1.3912974186035785e+00 0.0000000000000000e+00  8.3761028424782644e+00 7.1562721336674509e+00 0.0000000000000000e+00  2.7109170295821561e+00 3.0464396174344346e+00 0.0000000000000000e+00  4.0777410975324031e+00 4.3479394800569553e+00 0.0000000000000000e+00  4.8203978490827870e+00 -1.7360182656225551e-01 0.0000000000000000e+00  6.4362095856625725e+00 5.3349652885461554e+00 0.0000000000000000e+00  -8.5044559403888957e+00 4.6521603022131153e+00 0.0000000000000000e+00  2.5693053234006484e+00 2.1023705678153402e+00 0.0000000000000000e+00  -1.3312046286592807e+00 -4.4452985208480946e+00 0.0000000000000000e+00  -6.5402672813818352e-01 1.4772925916951083e+01 0.0000000000000000e+00  -3.1354777201859849e+00 -9.2269878138046324e-01 0.0000000000000000e+00  -7.5291855950853996e+00 -1.4340859629154479e+00 0.0000000000000000e+00  -5.1813936282616710e+00 2.7217229533798690e+00 0.0000000000000000e+00  -5.0725011220922456e+00 2.0530023773654621e-02 0.0000000000000000e+00  2.5460629093741223e+00 1.3994990379553517e+01 0.0000000000000000e+00  -8.8695502742723402e+00 -4.0602439513773305e+00 0.0000000000000000e+00  5.1845230395823920e+00 1.8959393072028672e+00 0.0000000000000000e+00  -3.5447912613305204e+00 -6.7805007094334604e+00 0.0000000000000000e+00  -9.5215237099140648e-01 1.2430141511511653e+01 0.0000000000000000e+00  -1.2355364740283287e+01 9.6714957158796313e+00 0.0000000000000000e+00  -1.9061708960090600e+00 3.2030167897177586e+00 0.0000000000000000e+00  3.1354448000894619e+00 -3.7275301901269993e+00 0.0000000000000000e+00  -2.9223052479657516e+00 1.4006475826695739e+01 0.0000000000000000e+00  -7.3258925856240997e-02 4.2709800632079764e+00 0.0000000000000000e+00  -3.9679534860412566e+00 -3.0677842568734142e+00 0.0000000000000000e+00  3.2199125796485939e+00 -5.1109965111462765e+00 0.0000000000000000e+00  2.2732401985442126e+00 -1.4000119549114597e+01 0.0000000000000000e+00  3.3945107244992401e+00 2.7489688952188622e+00 0.0000000000000000e+00  -3.7219586577463259e-01 1.3672259746384109e+01 0.0000000000000000e+00  -2.6545196689906492e+00 6.5856288125679505e+00 0.0000000000000000e+00  1.5388941708125434e+00 -3.7864464172726313e+00 0.0000000000000000e+00  -8.2791183714709007e+00 8.0607533768591608e+00 0.0000000000000000e+00  -1.9129614342956320e+00 6.1818654849301948e+00 0.0000000000000000e+00  8.0364198340207622e+00 -1.1804394941186187e+01 0.0000000000000000e+00  -6.3946825484136118e+00 -7.1058842299427072e+00 0.0000000000000000e+00  3.4206561463928320e-01 1.5840281241694159e+01 0.0000000000000000e+00  -7.6412170326050672e+00 1.5583173922636986e+00 0.0000000000000000e+00  4.9330508231204204e+00 -7.8170334121250979e+00 0.0000000000000000e+00  -2.8063660666435237e+00 4.3771778908081327e+00 0.0000000000000000e+00  -6.1794632638734717e+00 -4.4244380370056957e+00 0.0000000000000000e+00  1.9537148086190359e-01 -3.5213069068780025e+00 0.0000000000000000e+00  2.9653235050567157e+00 2.6245122486156491e+00 0.0000000000000000e+00  3.2094512500306500e+00 1.1812493666344905e+00 0.0000000000000000e+00  1.2698567945082908e+00 1.3483485436376137e+01 0.0000000000000000e+00  -6.4175958510897335e-01 1.7864093704878279e+01 0.0000000000000000e+00  -4.9404245652994465e+00 1.5807666774551558e+01 0.0000000000000000e+00  1.2935371859231468e+01 7.9413913292923271e+00 0.0000000000000000e+00  -3.4015892686543729e+00 -1.8627152289239049e-01 0.0000000000000000e+00  -1.4980224077698501e+00 -3.0814543723718479e+00 0.0000000000000000e+00  2.3787213579178346e+00 4.0564949157501005e+00 0.0000000000000000e+00  -3.8015073057526072e+00 -1.3600914773239351e+01 0.0000000000000000e+00  -5.7627792216988514e+00 5.3556474565680929e+00 0.0000000000000000e+00  2.8100914141020694e+00 -1.9619628188413625e+00 0.0000000000000000e+00  1.2076244191052201e+01 -7.2461095805107947e+00 0.0000000000000000e+00  1.6060855019919440e+00 1.7223697711035726e+01 0.0000000000000000e+00  -5.3296095469735527e-01 6.1787432658757178e+00 0.0000000000000000e+00  -3.6236267242746476e+00 3.1387119167707467e+00 0.0000000000000000e+00  -3.0554605556632617e+00 7.7700543339244348e+00 0.0000000000000000e+00  1.1339670902894181e+00 -3.2340636261976239e+00 0.0000000000000000e+00  -2.9367396153824710e+00 5.1409555455679223e+00 0.0000000000000000e+00  -1.2929774805996686e+01 7.0227175002505637e+00 0.0000000000000000e+00  2.5218252681534286e+00 2.7712775567820267e+00 0.0000000000000000e+00  2.3720124748911631e+00 1.2518337505989347e+01 0.0000000000000000e+00  -1.8023772306192403e+00 9.6523550877172291e+00 0.0000000000000000e+00  -4.4321349385455662e+00 5.1714529920084713e+00 0.0000000000000000e+00  -2.7575508849438246e+00 2.9103048477408859e+00 0.0000000000000000e+00  -3.3002074330833930e+00 -3.6970527067019572e+00 0.0000000000000000e+00  -2.5501389407920581e+00 1.2292458813929345e+01 0.0000000000000000e+00  4.0738020625447557e-01 9.3316437925842006e+00 0.0000000000000000e+00  -2.0361445339651763e+00 -7.6143798768731248e+00 0.0000000000000000e+00  1.3863156330935742e+00 4.0566596004135791e+00 0.0000000000000000e+00  3.3724476896469531e+00 3.4497287247730082e+00 0.0000000000000000e+00  4.7511614523539762e+00 -5.9715096888976129e+00 0.0000000000000000e+00  5.8115906781343361e+00 1.0097563884857742e+01 0.0000000000000000e+00  -5.8123221311491937e+00 8.7014286302677508e+00 0.0000000000000000e+00  -6.9221687358831465e+00 3.7115627929924928e+00 0.0000000000000000e+00  6.7964718816595306e+00 -4.3595984531651286e+00 0.0000000000000000e+00  -3.6756163130137427e+00 4.1753275432029389e+00 0.0000000000000000e+00  1.3231013110411700e+01 1.3504714407933389e+00 0.0000000000000000e+00  -4.8580993766909968e+00 -8.9860181436988629e-01 0.0000000000000000e+00  3.6847578385904241e+00 6.6408030338107213e+00 0.0000000000000000e+00  6.0625311312505508e+00 1.5070504458301180e+01 0.0000000000000000e+00  -7.3528256779597412e-01 -1.3122650715538658e+01 0.0000000000000000e+00  -2.3125872481417211e+00 -4.4143700369199363e+00 0.0000000000000000e+00  3.2395364209000821e+00 4.8397664981132102e+00 0.0000000000000000e+00  -6.0773283947803047e-01 1.5621221556402109e+01 0.0000000000000000e+00  3.0983360702204230e+00 -2.7160251580086436e+00 0.0000000000000000e+00  -3.0626150479638720e-01 -4.7430515570188492e+00 0.0000000000000000e+00  9.5568892315353935e+00 -9.0026214664439870e+00 0.0000000000000000e+00  -5.0448905645093749e+00 1.1052823206711719e+00 0.0000000000000000e+00  4.7850193637660849e+00 -1.3775049504009556e+00 0.0000000000000000e+00  -7.4771725225087931e+00 1.2950263317224580e+01 0.0000000000000000e+00  6.1934281018555692e+00 7.0258533909764109e+00 0.0000000000000000e+00  -3.5865242112012989e+00 3.7878572780873698e+00 0.0000000000000000e+00  4.9587915053523233e+00 -1.2472623183971088e+01 0.0000000000000000e+00  4.1560767705613060e+00 1.7298268698577675e+00 0.0000000000000000e+00  1.0877772761456900e+01 1.0216788537380813e+01 0.0000000000000000e+00  -3.4420170359582456e+00 2.2470272526798993e+00 0.0000000000000000e+00  -2.9423457986050822e-01 6.6529741525367028e+00 0.0000000000000000e+00  -8.0421806983457529e+00 6.5023993065231531e-02 0.0000000000000000e+00  1.5684580195911799e+00 3.3947119892869888e+00 0.0000000000000000e+00  4.1783858075792892e+00 3.9448750967666517e+00 0.0000000000000000e+00  3.6874248521834603e+00 2.8514468514046225e+00 0.0000000000000000e+00  -5.2718247035390231e+00 -5.9403771348282008e+00 0.0000000000000000e+00  -1.5902010346601885e+00 6.3072025563713217e+00 0.0000000000000000e+00  8.4712914927672678e+00 3.3874003266236641e+00 0.0000000000000000e+00  1.2427293175400974e+01 -4.1750871553260200e+00 0.0000000000000000e+00  -7.4042755094052248e+00 -3.3570270692094510e+00 0.0000000000000000e+00  -4.5886851089143716e+00 -2.2386466807170113e+00 0.0000000000000000e+00  7.6574087681481107e+00 -5.6742098724376377e-01 0.0000000000000000e+00  3.4378311293472548e+00 1.0773320293061742e+01 0.0000000000000000e+00  -5.3714427213737679e+00 1.1249735142868015e+01 0.0000000000000000e+00  1.9555073607295603e+00 3.4084960765099725e+00 0.0000000000000000e+00  5.0570984396431529e+00 8.9606770909705524e-01 0.0000000000000000e+00  4.2380577794748078e+00 -2.7299764102126329e+00 0.0000000000000000e+00  6.1653467659388177e+00 3.9196500647389976e+00 0.0000000000000000e+00  -9.1023721613305639e+00 -1.0693497769476886e+01 0.0000000000000000e+00  -2.2932121496585087e+00 2.7314734552070079e+00 0.0000000000000000e+00  1.4059699661615676e+01 -1.4830844436906354e+00 0.0000000000000000e+00  6.4546744346909888e+00 9.1637905931461472e-01 0.0000000000000000e+00  1.6100373745960834e+00 -8.5608525500163921e+00 0.0000000000000000e+00  -2.9249745293636535e+00 -1.7065722673103156e+00 0.0000000000000000e+00  -1.4320187284968705e+01 8.1042061517973621e-02 0.0000000000000000e+00  -1.3403534135522033e+00 1.2323742715360257e+01 0.0000000000000000e+00  1.4599172437223862e-01 1.4710826366628249e+01 0.0000000000000000e+00  -1.0027958903826509e+01 1.1371553161640927e+01 0.0000000000000000e+00  1.3531452089309111e+01 5.1104150922772691e+00 0.0000000000000000e+00  -2.3671805770982548e+00 -2.3976391992252619e+00 0.0000000000000000e+00  1.1062479643162648e+00 7.7514762516812734e+00 0.0000000000000000e+00  -3.3553973728702182e+00 7.3378030888649737e-01 0.0000000000000000e+00  -6.5523130656569717e-01 3.7765700654674323e+00 0.0000000000000000e+00  3.1913024639593761e+00 3.7493966542035286e+00 0.0000000000000000e+00  2.3803560371189678e+00 8.6368708684122151e+00 0.0000000000000000e+00  -1.2926304848074526e+01 -5.9582614823996876e+00 0.0000000000000000e+00  1.5969497754196251e+00 -5.2730650139317561e+00 0.0000000000000000e+00  -1.0729141321027139e+01 -4.9167527062513114e+00 0.0000000000000000e+00  -3.7077306119493838e+00 9.9699193229608110e+00 0.0000000000000000e+00  3.0001672235387944e+00 3.2384460001100326e+00 0.0000000000000000e+00  3.1644290205788921e+00 1.9383633946311987e+00 0.0000000000000000e+00  -7.5864410772088853e+00 -8.6850258893025121e+00 0.0000000000000000e+00  -3.1679940570530092e+00 -1.1239524607959197e+01 0.0000000000000000e+00  -9.5016454811583202e+00 -2.0431493935231901e+00 0.0000000000000000e+00  -3.8849551569520133e+00 1.3117276503465829e+00 0.0000000000000000e+00  4.9323230668911249e+00 5.3313526123234416e+00 0.0000000000000000e+00  2.0472631507300263e+00 -3.2846301157215652e+00 0.0000000000000000e+00  -4.9215507776894363e+00 1.3523366293548577e+01 0.0000000000000000e+00  -6.7550223622793326e-01 1.0686218474495071e+01 0.0000000000000000e+00  -4.8906887498018987e+00 4.1449927203561492e+00 0.0000000000000000e+00  4.5830315083374087e+00 -4.1953024159931180e+00 0.0000000000000000e+00  4.3277351944106259e+00 8.5191779703867301e+00 0.0000000000000000e+00  -6.3690579423070837e+00 4.0451596069419782e-02 0.0000000000000000e+00  -4.7397959483111229e+00 -3.9065981495163236e+00 0.0000000000000000e+00  -1.7414221166000876e+00 -5.8669027380562717e+00 0.0000000000000000e+00  7.9979788389466346e+00 5.2542300460208669e+00 0.0000000000000000e+00  -2.6620631863907054e+00 3.6220613063206542e+00 0.0000000000000000e+00  -9.6929375607124033e+00 2.8708304730621621e+00 0.0000000000000000e+00  9.1788290886997466e+00 -3.1062701988996944e+00 0.0000000000000000e+00  2.7710428135544980e+00 -7.0842801018654651e+00 0.0000000000000000e+00  6.0271065515160318e+00 -6.9459881542617719e-01 0.0000000000000000e+00  -7.7208992494182551e+00 -5.8555825200990164e+00 0.0000000000000000e+00  -2.4493926207717478e+00 3.4025041941410583e+00 0.0000000000000000e+00  2.2404156750954956e+00 4.0701618818714218e+00 0.0000000000000000e+00  1.3065131894918778e+00 1.0429728084018656e+01 0.0000000000000000e+00  -1.8852673349359745e+00 4.0396711127974489e+00 0.0000000000000000e+00  4.4986665997029034e+00 1.2947006605386747e+01 0.0000000000000000e+00  -5.7929368539356574e-01 -9.4847879170836169e+00 0.0000000000000000e+00  9.7605132029619455e+00 1.0699392811421664e+00 0.0000000000000000e+00  2.6136603537372571e+00 3.5264512433958459e+00 0.0000000000000000e+00  -3.8277141876879019e+00 -1.2253283894109468e+00 0.0000000000000000e+00  7.8317314882408129e-01 -4.2615288516763199e+00 0.0000000000000000e+00  4.0898687530930182e+00 5.9220225379920866e-01 0.0000000000000000e+00  -1.0308171614559385e+00 4.6982869214239464e+00 0.0000000000000000e+00  -1.0191633647896648e+01 5.8028989626203975e+00 0.0000000000000000e+00  8.1029148157818369e+00 9.1570516620489677e+00 0.0000000000000000e+00  -1.9599911434979722e+00 4.4648105467490273e+00 0.0000000000000000e+00  3.6746762680225165e+00 -1.7066373798654197e+00 0.0000000000000000e+00  -1.4259275761554084e+00 1.3939608104179124e+01 0.0000000000000000e+00  -1.3858781493095069e+00 7.5226609626080698e+00 0.0000000000000000e+00  7.0538974666150205e+00 -6.6478297446749757e+00 0.0000000000000000e+00  1.1944111818537171e+00 1.3840088490078475e+01 0.0000000000000000e+00  3.0024937954824553e+00 4.9532698343354262e+00 0.00000