<?xml version="1.0"?>
<VTKFile type="UnstructuredGrid"  version="0.1"  >
<UnstructuredGrid>
<Piece  NumberOfPoints="780" NumberOfCells="1462">
<Points>
<DataArray  type="Float64"  NumberOfComponents="3"  format="ascii">0.3 2.3 0  3 0 0  1.5 0 0  0.2975370041469738 2.338363148505352 0  0.2901884589117088 2.376096375172852 0  0.2780750272038065 2.412580101463812 0  0.2613956112370167 2.447215265601181 0  0.2404240865603869 2.479433159147365 0  0.2155048050293181 2.508704765181046 0  0.1870469405576198 2.534549444740409 0  0.1555177704931572 2.556542828901604 0  0.1214350029367179 2.574323786904744 0  0.08535827598930948 2.587600355910998 0  0.04787996851001353 2.596154535024335 0  0.009615473271496266 2.599845864860206 0  -0.02880690777230486 2.598613733884759 0  -0.06675628018689482 2.592478373654547 0  -0.1036095163263927 2.581540526614928 0  -0.1387614870722511 2.5659797919119 0  -0.1716349980366514 2.546051676379086 0  -0.2016902670783955 2.522083399122594 0  -0.2284337875107408 2.494468518592336 0  -0.2514264314675524 2.463660470363164 0  -0.270290660370726 2.430165121735267 0  -0.2847167241032008 2.394532465407086 0  -0.2944677470973197 2.357347588610411 0  -0.2993836178251009 2.319221065994213 0  -0.2993836178251009 2.280778934005785 0  -0.2944677470973195 2.242652411389588 0  -0.2847167241032005 2.205467534592913 0  -0.2702906603707256 2.169834878264732 0  -0.2514264314675521 2.136339529636835 0  -0.2284337875107404 2.105531481407664 0  -0.2016902670783951 2.077916600877405 0  -0.1716349980366512 2.053948323620913 0  -0.1387614870722508 2.0340202080881 0  -0.1036095163263924 2.018459473385072 0  -0.06675628018689463 2.007521626345453 0  -0.02880690777230473 2.00138626611524 0  0.009615473271496191 2.000154135139793 0  0.04787996851001352 2.003845464975665 0  0.0853582759893096 2.012399644089002 0  0.1214350029367179 2.025676213095256 0  0.1555177704931573 2.043457171098396 0  0.1870469405576198 2.065450555259591 0  0.2155048050293181 2.091295234818954 0  0.2404240865603868 2.120566840852635 0  0.2613956112370167 2.152784734398818 0  0.2780750272038064 2.187419898536187 0  0.2901884589117087 2.223903624827147 0  0.2975370041469738 2.261636851494648 0  2.975370041469738 0.3836314850535185 0  2.901884589117088 0.760963751728523 0  2.780750272038065 1.125801014638124 0  2.613956112370167 1.472152656011815 0  2.404240865603869 1.79433159147365 0  2.155048050293181 2.087047651810461 0  1.870469405576198 2.345494447404091 0  1.555177704931572 2.56542828901604 0  1.214350029367178 2.743237869047439 0  0.8535827598930935 2.876003559109983 0  0.4787996851001333 2.961545350243351 0  0.09615473271496067 2.998458648602064 0  -0.28806907772305 2.986137338847594 0  -0.6675628018689488 2.92478373654547 0  -1.036095163263929 2.815405266149279 0  -1.387614870722512 2.659797919118997 0  -1.716349980366516 2.460516763790863 0  -2.016902670783956 2.220833991225941 0  -2.284337875107409 1.944685185923358 0  -2.514264314675527 1.636604703631638 0  -2.702906603707262 1.301651217352665 0  -2.847167241032009 0.9453246540708524 0  -2.944677470973198 0.5734758861041045 0  -2.993836178251009 0.1922106599421264 0  -2.993836178251008 -0.1922106599421536 0  -2.944677470973194 -0.5734758861041299 0  -2.847167241032002 -0.9453246540708744 0  -2.702906603707251 -1.301651217352687 0  -2.514264314675514 -1.636604703631658 0  -2.284337875107395 -1.944685185923375 0  -2.01690267078394 -2.220833991225956 0  -1.716349980366497 -2.460516763790876 0  -1.387614870722494 -2.659797919119006 0  -1.036095163263912 -2.815405266149285 0  -0.6675628018689334 -2.924783736545473 0  -0.2880690777230367 -2.986137338847596 0  0.09615473271497524 -2.998458648602063 0  0.4787996851001458 -2.961545350243349 0  0.8535827598931036 -2.87600355910998 0  1.214350029367186 -2.743237869047435 0  1.555177704931578 -2.565428289016037 0  1.870469405576202 -2.345494447404088 0  2.155048050293185 -2.087047651810457 0  2.404240865603871 -1.794331591473647 0  2.613956112370168 -1.472152656011814 0  2.780750272038065 -1.125801014638124 0  2.901884589117087 -0.760963751728525 0  2.975370041469738 -0.3836314850535199 0  1.487685020734869 0.1918157425267593 0  1.450942294558544 0.3804818758642615 0  1.390375136019032 0.5629005073190618 0  1.306978056185084 0.7360763280059076 0  1.202120432801934 0.8971657957368249 0  1.077524025146591 1.04352382590523 0  0.9352347027880992 1.172747223702046 0  0.7775888524657859 1.28271414450802 0  0.6071750146835891 1.37161893452372 0  0.4267913799465468 1.438001779554992 0  0.2393998425500666 1.480772675121676 0  0.04807736635748033 1.499229324301032 0  -0.144034538861525 1.493068669423797 0  -0.3337814009344744 1.462391868272735 0  -0.5180475816319644 1.407702633074639 0  -0.6938074353612562 1.329898959559498 0  -0.858174990183258 1.230258381895431 0  -1.008451335391978 1.110416995612971 0  -1.142168937553705 0.9723425929616789 0  -1.257132157337764 0.818302351815819 0  -1.351453301853631 0.6508256086763325 0  -1.423583620516005 0.4726623270354262 0  -1.472338735486599 0.2867379430520522 0  -1.496918089125505 0.09610532997106321 0  -1.496918089125504 -0.09610532997107679 0  -1.472338735486597 -0.286737943052065 0  -1.423583620516001 -0.4726623270354372 0  -1.351453301853625 -0.6508256086763435 0  -1.257132157337757 -0.8183023518158289 0  -1.142168937553698 -0.9723425929616873 0  -1.00845133539197 -1.110416995612978 0  -0.8581749901832485 -1.230258381895438 0  -0.6938074353612471 -1.329898959559503 0  -0.518047581631956 -1.407702633074643 0  -0.3337814009344667 -1.462391868272737 0  -0.1440345388615184 -1.493068669423798 0  0.04807736635748762 -1.499229324301032 0  0.2393998425500729 -1.480772675121675 0  0.4267913799465518 -1.43800177955499 0  0.607175014683593 -1.371618934523718 0  0.777588852465789 -1.282714144508018 0  0.9352347027881011 -1.172747223702044 0  1.077524025146592 -1.043523825905228 0  1.202120432801935 -0.8971657957368233 0  1.306978056185084 -0.7360763280059068 0  1.390375136019032 -0.5629005073190618 0  1.450942294558544 -0.3804818758642625 0  1.487685020734869 -0.19181574252676 0  0.2877736410539565 2.487319881915789 0  -0.246587060792263 2.538806251268189 0  1.275972761737523 -2.200729179033895 0  0.3036783627909754 2.035376302627057 0  1.663116993196883 -0.1067756536398424 0  -1.372563936970318 1.493336835643126 0  2.099180607894271 0.4537272375049011 0  -0.1280292480793861 1.849668853317526 0  1.326195738790389 -1.510736525378084 0  -0.01029442221563963 2.633704411489678 0  0.3386064174939502 2.324046550831774 0  2.030327426461297 -0.7224293242857935 0  1.559426551170428 -1.274279603708838 0  -1.951826832657239 -1.856699377288094 0  1.596203288967205 1.699734991151157 0  -1.696727971972026 -2.092649093521242 0  0.8251367635886433 2.284010489165031 0  -0.668594092114603 -1.510164067208574 0  0.9905711600440241 -1.778816030378368 0  -1.1508613182541 -2.197100421775222 0  -1.306375891430083 -1.835070174107889 0  2.23626309568761 -1.185483607838075 0  1.821213208385134 -0.8694077937272722 0  0.1567467768943238 1.784484913833746 0  -0.4231860998980227 -2.646199889388834 0  -2.49961110870034 -1.022208116473871 0  0.8236286756140458 2.560379182259269 0  -0.6527350622172436 1.500415353796168 0  -1.323706607182951 -0.987907916004173 0  0.4436301739489063 -2.124585230022485 0  0.8038343549603352 2.069876054609529 0  -2.158093372839906 -0.698947687517864 0  0.2347055240234879 1.969839247295811 0  0.03830339437731362 2.663911443477038 0  -2.131068400706572 0.310742892199517 0  0.6012746352353948 2.68917307459466 0  0.2971363653926395 1.651303722574493 0  -0.273239030481493 2.096176442649231 0  -0.97081543280461 1.741665551131929 0  1.262288344543381 1.078704896273318 0  0.3285225531772046 2.40927433693416 0  -2.339600186795871 1.306675918092683 0  -0.2993120299910985 2.468569394812123 0  1.526195160722415 2.258168678360891 0  1.958537310263609 0.8985790528315145 0  -1.646522188364986 -0.2150245151415698 0  -0.2089475831931108 2.568392962454227 0  1.913894633149875 0.6357937010906517 0  -0.2107488027685992 2.035729360118284 0  0.2378581263201008 -2.009606945264506 0  -1.961455480369948 0.4776119330158055 0  0.7791412139458459 1.46621047837902 0  -1.359112885269097 2.349710207027801 0  -1.864011421101278 1.257590945869169 0  1.310719548992684 2.425242388986704 0  -1.185628616326569 1.144463014457963 0  -0.8959211820503096 2.140444069765028 0  0.1557818716539923 2.001395317386582 0  0.9663107447378187 1.758709197078618 0  -0.4054060093055652 2.61352099970444 0  -1.911381627858147 1.6737364711717 0  -0.769169660943953 -2.640748556140519 0  -2.403383125111121 -1.337506806713901 0  0.2582067971830622 2.525322421523435 0  2.778517714168509 -0.1719357898291832 0  0.4909229879649218 1.945714874619405 0  -1.336103092013128 -1.346005971157745 0  -0.01314996076171939 1.842403166968202 0  -1.744955476473075 0.8217188008789633 0  -2.252419554119013 -0.08197945197480432 0  -0.4684724102399133 -1.843760673829241 0  -0.1685105033346208 -1.921378570937348 0  2.130386938213253 -1.730091020394836 0  -0.2929456284299079 2.00428761622828 0  0.6516112302956835 1.718117002850457 0  -1.017777745178119 -1.592102040379578 0  1.834636747325094 -1.078217064788511 0  -0.3116888150367217 2.173811184072085 0  -1.379625005331907 -2.35534310728774 0  -0.4868050803385185 2.755121219825461 0  1.777439625834664 2.088972146689593 0  -0.06170866191319609 -2.755407461858063 0  -2.679307810986296 -0.6733335479291733 0  -0.1190524647765357 2.643808234756202 0  -1.522984130408045 -1.656449404065874 0  2.260862909944211 0.05300198152598493 0  0.4285977391561666 2.264829760889068 0  0.3847927231203499 1.768955014159002 0  2.326393789342716 -1.470261016027689 0  -1.045488325951667 2.034235832725821 0  -2.753605733578825 -0.3846829945599392 0  -2.057501456691318 1.132005505435226 0  2.663912752207367 0.8834646851045026 0  0.8530905344495884 -2.121087928219497 0  2.114885599672032 1.809283361032109 0  1.309733121037103 -2.450784674428401 0  -0.6630412601826312 1.772598798124445 
[...]
<PointData  Vectors="f_51"> 
<DataArray  type="Float64"  Name="f_51"  NumberOfComponents="3" format="ascii">1.1555820005712161e+00 1.9013413925302005e+00 0.0000000000000000e+00  7.2088292370704439e+00 -7.4597667069447636e-03 0.0000000000000000e+00  1.4394799093146709e+01 4.5923553693390039e-02 0.0000000000000000e+00  2.8953319401979223e+00 2.2513095707532127e+00 0.0000000000000000e+00  3.5972670435675265e+00 2.7343427280157395e+00 0.0000000000000000e+00  5.2519240010883479e+00 3.9622867077120723e+00 0.0000000000000000e+00  4.6213242683589462e+00 4.3496059445634012e+00 0.0000000000000000e+00  6.5833055361298358e+00 6.6986606671434847e+00 0.0000000000000000e+00  3.5285251154798676e+00 4.8787204476803376e+00 0.0000000000000000e+00  6.9295218439348165e+00 1.0492597294861582e+01 0.0000000000000000e+00  3.5739965094463373e+00 7.6900986284861377e+00 0.0000000000000000e+00  5.1581517169707016e+00 1.3399246870096432e+01 0.0000000000000000e+00  3.0682344177866456e+00 1.2447971411969563e+01 0.0000000000000000e+00  1.8140921537664294e+00 1.2961918555103507e+01 0.0000000000000000e+00  1.5002692142079499e-01 8.6235537308833550e+00 0.0000000000000000e+00  -5.4170162485509898e-01 8.1163616130046634e+00 0.0000000000000000e+00  -2.6900130336020203e+00 1.3631568412327223e+01 0.0000000000000000e+00  -2.3160483767027849e+00 7.9055151290267300e+00 0.0000000000000000e+00  -5.3068807010756780e+00 1.1948154858460493e+01 0.0000000000000000e+00  -3.0883824434115956e+00 5.9905406433281030e+00 0.0000000000000000e+00  -5.3566392164638472e+00 7.6047871383781720e+00 0.0000000000000000e+00  -5.6270094175965761e+00 6.5103415401836422e+00 0.0000000000000000e+00  -4.9075813805598090e+00 4.8991490247081035e+00 0.0000000000000000e+00  -4.9670009729921007e+00 4.1566721722117590e+00 0.0000000000000000e+00  -4.2788778792479683e+00 3.2448739271323221e+00 0.0000000000000000e+00  -3.0250770017787811e+00 2.4214832223459180e+00 0.0000000000000000e+00  -2.1371691983450165e+00 2.0381808118555602e+00 0.0000000000000000e+00  -7.5976418692085335e-01 1.8504021747539248e+00 0.0000000000000000e+00  6.1843544902060277e-01 2.1195079590024437e+00 0.0000000000000000e+00  1.4456914764409161e+00 2.4887742010523874e+00 0.0000000000000000e+00  3.0687147556837036e+00 3.6538485257992503e+00 0.0000000000000000e+00  4.0007866852405600e+00 4.7297395060443224e+00 0.0000000000000000e+00  4.3710705113932793e+00 6.0941618880713433e+00 0.0000000000000000e+00  4.9004594964020631e+00 7.5964009125107976e+00 0.0000000000000000e+00  4.8090636809080225e+00 9.4788040496038217e+00 0.0000000000000000e+00  4.4418998746906402e+00 1.0812460719304521e+01 0.0000000000000000e+00  3.1762634937581962e+00 1.1249057114027313e+01 0.0000000000000000e+00  2.2642187235771263e+00 1.2064185579726850e+01 0.0000000000000000e+00  1.0404890812560332e+00 1.4337003550778762e+01 0.0000000000000000e+00  -3.4704999374771001e-01 1.4801860553489876e+01 0.0000000000000000e+00  -1.1461830844666872e+00 9.5413599605691530e+00 0.0000000000000000e+00  -2.6824961418678352e+00 1.1266771466159611e+01 0.0000000000000000e+00  -3.7988113730364121e+00 1.1335041399037546e+01 0.0000000000000000e+00  -4.6493338375719508e+00 9.9550346358488007e+00 0.0000000000000000e+00  -5.4634508827734587e+00 9.3047674293225331e+00 0.0000000000000000e+00  -4.0749453618383500e+00 6.1692212714442025e+00 0.0000000000000000e+00  -5.5964262916055620e+00 6.4669788217059292e+00 0.0000000000000000e+00  -2.6862800413507792e+00 3.6850471950530959e+00 0.0000000000000000e+00  -2.5476260936321999e+00 3.0971865380260004e+00 0.0000000000000000e+00  -1.0114778419551587e+00 2.2823951934973454e+00 0.0000000000000000e+00  1.5807393246369181e-01 1.9752778119797170e+00 0.0000000000000000e+00  7.0735193239352263e+00 9.1239325638811897e-01 0.0000000000000000e+00  6.9658943460018588e+00 1.8337969715412830e+00 0.0000000000000000e+00  6.6966945049749436e+00 2.6991307054116804e+00 0.0000000000000000e+00  6.2029579970679549e+00 3.4910679059866614e+00 0.0000000000000000e+00  5.7536507044320571e+00 4.3011346494539300e+00 0.0000000000000000e+00  5.1386573358857763e+00 4.9817062085264352e+00 0.0000000000000000e+00  4.4574846760919762e+00 5.5914874205920109e+00 0.0000000000000000e+00  3.7004129839484099e+00 6.0835133141293252e+00 0.0000000000000000e+00  2.8957780065645173e+00 6.5785258994086444e+00 0.0000000000000000e+00  2.1341131608021309e+00 7.1539804996100704e+00 0.0000000000000000e+00  1.3336412723344213e+00 8.5460009174180502e+00 0.0000000000000000e+00  3.9317141435090802e-01 1.0761446427886348e+01 0.0000000000000000e+00  -9.1634348141890720e-01 9.7047240994694022e+00 0.0000000000000000e+00  -1.7892589424855474e+00 7.6911318356635201e+00 0.0000000000000000e+00  -2.4971499970853945e+00 6.8141683264124993e+00 0.0000000000000000e+00  -3.3133666967814857e+00 6.3341228348693592e+00 0.0000000000000000e+00  -4.0879638346893632e+00 5.8540236112088531e+00 0.0000000000000000e+00  -4.8128539090681048e+00 5.3013848890676529e+00 0.0000000000000000e+00  -5.4658395922429444e+00 4.6471591609856677e+00 0.0000000000000000e+00  -6.0347403061561913e+00 3.9147594423638692e+00 0.0000000000000000e+00  -6.4738036733665796e+00 3.1299349257666491e+00 0.0000000000000000e+00  -6.8197765497206619e+00 2.2430949150154187e+00 0.0000000000000000e+00  -7.0890507537607457e+00 1.3956124242537518e+00 0.0000000000000000e+00  -7.1181108305586278e+00 4.4928751862702243e-01 0.0000000000000000e+00  -7.2012323440285524e+00 -4.6872264954570547e-01 0.0000000000000000e+00  -7.0703151813468672e+00 -1.3781713913918303e+00 0.0000000000000000e+00  -6.8393699225214464e+00 -2.2805952449513875e+00 0.0000000000000000e+00  -6.4951369377959258e+00 -3.1198300075191114e+00 0.0000000000000000e+00  -6.0052305750320416e+00 -3.9415392531115430e+00 0.0000000000000000e+00  -5.4918434493887753e+00 -4.6629114051406404e+00 0.0000000000000000e+00  -4.8411592980866827e+00 -5.3319908713715387e+00 0.0000000000000000e+00  -4.1318186752642170e+00 -5.9156584760362900e+00 0.0000000000000000e+00  -3.3201047769264700e+00 -6.3941645471903659e+00 0.0000000000000000e+00  -2.5066450799343096e+00 -6.7345534891412813e+00 0.0000000000000000e+00  -1.5954238460494063e+00 -7.0292246738982964e+00 0.0000000000000000e+00  -7.0324734938284061e-01 -7.1711293722177780e+00 0.0000000000000000e+00  2.2914333875820955e-01 -7.1956765596385726e+00 0.0000000000000000e+00  1.1412112674492132e+00 -7.1409214891157502e+00 0.0000000000000000e+00  2.0262568665319880e+00 -6.8353482987731642e+00 0.0000000000000000e+00  2.9267302866074565e+00 -6.5906919881394996e+00 0.0000000000000000e+00  3.7367290898846939e+00 -6.1567153521169491e+00 0.0000000000000000e+00  4.4928361333396403e+00 -5.6299111799008292e+00 0.0000000000000000e+00  5.1816683066933011e+00 -5.0176586743903586e+00 0.0000000000000000e+00  5.7743588872265699e+00 -4.3108149568799128e+00 0.0000000000000000e+00  6.2672811249747689e+00 -3.5369680776409496e+00 0.0000000000000000e+00  6.6976209923735661e+00 -2.7256008658890036e+00 0.0000000000000000e+00  6.8964183819448035e+00 -1.8092752291606662e+00 0.0000000000000000e+00  7.1481019461067339e+00 -9.1605480023750441e-01 0.0000000000000000e+00  1.4292818029511311e+01 1.8164387773893864e+00 0.0000000000000000e+00  1.3961611746613210e+01 3.6457841648342302e+00 0.0000000000000000e+00  1.3375181721276441e+01 5.4313025847725420e+00 0.0000000000000000e+00  1.2557824424124481e+01 7.1036674417666736e+00 0.0000000000000000e+00  1.1600147526295862e+01 8.6031078265912555e+00 0.0000000000000000e+00  1.0391683194348769e+01 1.0109319850862605e+01 0.0000000000000000e+00  9.0831556225107573e+00 1.1406820365703243e+01 0.0000000000000000e+00  7.6637446095947368e+00 1.2597437018874043e+01 0.0000000000000000e+00  6.0991709008268007e+00 1.3839086715524324e+01 0.0000000000000000e+00  4.5469003583611611e+00 1.5179467896194867e+01 0.0000000000000000e+00  2.6735431241786585e+00 1.6732306479767097e+01 0.0000000000000000e+00  6.2466385084880038e-01 1.7897658719210728e+01 0.0000000000000000e+00  -1.6545416992561683e+00 1.7458205060955837e+01 0.0000000000000000e+00  -3.6633368118265346e+00 1.5982057150399280e+01 0.0000000000000000e+00  -5.3520916131464382e+00 1.4484192208125977e+01 0.0000000000000000e+00  -6.8865036150702457e+00 1.3220148927305207e+01 0.0000000000000000e+00  -8.4037127604425397e+00 1.1986135045415960e+01 0.0000000000000000e+00  -9.7154635692001214e+00 1.0795265197398535e+01 0.0000000000000000e+00  -1.1049812306545824e+01 9.3433369955376051e+00 0.0000000000000000e+00  -1.2084766287053194e+01 7.9204647910639743e+00 0.0000000000000000e+00  -1.3013294476281615e+01 6.2221873836450818e+00 0.0000000000000000e+00  -1.3675047626476234e+01 4.5461028360154110e+00 0.0000000000000000e+00  -1.4134528816153896e+01 2.7915449806024397e+00 0.0000000000000000e+00  -1.4376919551665706e+01 8.6657950840386244e-01 0.0000000000000000e+00  -1.4373980959882042e+01 -8.7050831239921977e-01 0.0000000000000000e+00  -1.4133785073710751e+01 -2.7968105451057070e+00 0.0000000000000000e+00  -1.3687315469722765e+01 -4.4995796735508051e+00 0.0000000000000000e+00  -1.2956633056092834e+01 -6.2916885831494120e+00 0.0000000000000000e+00  -1.2100914044179618e+01 -7.8201768199779238e+00 0.0000000000000000e+00  -1.0939820747318903e+01 -9.3765508377051798e+00 0.0000000000000000e+00  -9.7200486408061693e+00 -1.0629629920102774e+01 0.0000000000000000e+00  -8.1997224843952470e+00 -1.1841331525574125e+01 0.0000000000000000e+00  -6.7067234368905888e+00 -1.2752381821034321e+01 0.0000000000000000e+00  -4.9307653973191679e+00 -1.3539417027188195e+01 0.0000000000000000e+00  -3.2544938030531938e+00 -1.4031279978342072e+01 0.0000000000000000e+00  -1.3436866688431710e+00 -1.4339966534780334e+01 0.0000000000000000e+00  4.5463329654937062e-01 -1.4390590383574962e+01 0.0000000000000000e+00  2.2877145527733584e+00 -1.4213755564372534e+01 0.0000000000000000e+00  4.1018860411565363e+00 -1.3806558916652214e+01 0.0000000000000000e+00  5.8278549558520618e+00 -1.3176685518339530e+01 0.0000000000000000e+00  7.4822717775862300e+00 -1.2305172114481765e+01 0.0000000000000000e+00  8.9624916060251945e+00 -1.1273048492063367e+01 0.0000000000000000e+00  1.0350874270393366e+01 -1.0022592491564151e+01 0.0000000000000000e+00  1.1557446243085865e+01 -8.6001002633203623e+00 0.0000000000000000e+00  1.2538067050211186e+01 -7.1078894772840062e+00 0.0000000000000000e+00  1.3370251067294994e+01 -5.3972528440061378e+00 0.0000000000000000e+00  1.3939896890009789e+01 -3.6277319858568267e+00 0.0000000000000000e+00  1.4269337999653168e+01 -1.8861220867542825e+00 0.0000000000000000e+00  7.1940210357203096e+00 7.8680697378805666e+00 0.0000000000000000e+00  -7.4279501359379676e+00 1.0286923937500466e+01 0.0000000000000000e+00  4.2655623689118558e+00 -7.3599556852722037e+00 0.0000000000000000e+00  -3.2230587977236120e+00 1.0387702485983771e+01 0.0000000000000000e+00  1.2979563515435755e+01 -8.3232541343887134e-01 0.0000000000000000e+00  -7.1646292570586514e+00 7.8984894331633262e+00 0.0000000000000000e+00  9.8581033977107015e+00 2.1394113816412732e+00 0.0000000000000000e+00  1.1688803184053163e+00 1.6177233239635541e+01 0.0000000000000000e+00  7.1155417214195431e+00 -8.1045797684266976e+00 0.0000000000000000e+00  -5.1298152689320198e-01 1.8277582186073097e+01 0.0000000000000000e+00  3.0925513938195079e+00 3.7621436182459411e+00 0.0000000000000000e+00  9.4700053228339627e+00 -3.3806828951645764e+00 0.0000000000000000e+00  8.3347372878763153e+00 -6.8140656158276443e+00 0.0000000000000000e+00  -5.8182854934225476e+00 -5.5529820991531018e+00 0.0000000000000000e+00  6.2916971185964510e+00 6.7836844701105035e+00 0.0000000000000000e+00  -5.0594809745822751e+00 -6.2503112816052351e+00 0.0000000000000000e+00  2.9688802795885429e+00 7.8843819702935596e+00 0.0000000000000000e+00  -5.3068661567061524e+00 -1.1984646007827031e+01 0.0000000000000000e+00  5.1932863076410403e+00 -9.2950819853855702e+00 0.0000000000000000e+00  -4.0414292627463215e+00 -7.7327462222037040e+00 0.0000000000000000e+00  -5.5701109617170204e+00 -7.8312012787943930e+00 0.0000000000000000e+00  7.5556034467966757e+00 -4.0155591432944950e+00 0.0000000000000000e+00  9.6896807459903442e+00 -4.6168614006285988e+00 0.0000000000000000e+00  -3.6291010249967032e-01 1.5641679329598006e+01 0.0000000000000000e+00  -1.2699566752194138e+00 -7.9771142908721053e+00 0.0000000000000000e+00  -7.4263263748987924e+00 -3.0314067638093909e+00 0.0000000000000000e+00  2.8016381350157444e+00 7.5151585661041587e+00 0.0000000000000000e+00  -5.2179184901638722e+00 1.2806415495258710e+01 0.0000000000000000e+00  -1.0505121584480531e+01 -7.8399977208325593e+00 0.0000000000000000e+00  2.0297342813784303e+00 -9.7704334714858039e+00 0.0000000000000000e+00  3.0663237831248176e+00 8.7635803238401184e+00 0.0000000000000000e+00  -9.0813922133134781e+00 -2.9408146332658012e+00 0.0000000000000000e+00  -3.4466320053344850e+00 1.3323851833003399e+01 0.0000000000000000e+00  1.2308231316383977e+00 1.5142142986844034e+01 0.0000000000000000e+00  -9.9524665543129718e+00 1.4635070256296980e+00 0.0000000000000000e+00  2.6420431301664307e+00 8.0196563623780737e+00 0.0000000000000000e+00  1.6236544295197466e+00 1.4982811948817464e+01 0.0000000000000000e+00  5.8092611877307085e+00 9.1350774377691089e+00 0.0000000000000000e+00  -5.0217078205095005e+00 9.6214117125315806e+00 0.0000000000000000e+00  9.9358542194296771e+00 8.5287634919230584e+00 0.0000000000000000e+00  5.5941364062332140e+00 5.3659830148731338e+00 0.0000000000000000e+00  -7.0385561186955838e+00 3.9453556332480462e+00 0.0000000000000000e+00  -7.1421444370720835e+00 7.3363978982719695e+00 0.0000000000000000e+00  4.3955697736797088e+00 6.5295822422662546e+00 0.0000000000000000e+00  9.1349617949089108e+00 4.1942134749401170e+00 0.0000000000000000e+00  -1.2937163205649258e+01 -1.6868091558711844e+00 0.0000000000000000e+00  -7.2486713046448665e+00 1.2476794748039433e+01 0.0000000000000000e+00  1.0192803830711313e+01 3.3964811733165625e+00 0.0000000000000000e+00  7.1254504367102713e+00 1.3997086231340637e+01 0.0000000000000000e+00  1.2401834787709596e+00 -1.0618256200420978e+01 0.0000000000000000e+00  -1.0406043877622450e+01 2.5533392262461323e+00 0.0000000000000000e+00  6.0953598379259812e+00 1.1943213674508090e+01 0.0000000000000000e+00  -3.9401982673921414e+00 6.8251983206650921e+00 0.0000000000000000e+00  -7.9636784841338857e+00 5.3990765387304576e+00 0.0000000000000000e+00  3.7026471579768221e+00 6.8296427116135261e+00 0.0000000000000000e+00  -9.4899012877358668e+00 9.2199871245119862e+00 0.0000000000000000e+00  -3.3254477413315628e+00 8.3083054158966512e+00 0.0000000000000000e+00  -6.3803956897321514e+00 1.7495822421114529e+01 0.0000000000000000e+00  4.9286519334860301e+00 9.5631643408500029e+00 0.0000000000000000e+00  -3.7505151208836569e+00 8.6095131196097743e+00 0.0000000000000000e+00  -6.3781244250527678e+00 5.6111877720601431e+00 0.0000000000000000e+00  -2.1979000312013999e+00 -7.5706975091658411e+00 0.0000000000000000e+00  -6.8950428816837102e+00 -3.8249630185812560e+00 0.0000000000000000e+00  7.5114672301753549e+00 9.8090219474823641e+00 0.0000000000000000e+00  7.7834214997399691e+00 -4.8267818973316595e-01 0.0000000000000000e+00  8.0434111756047755e-01 1.0588038350363892e+01 0.0000000000000000e+00  -8.0400338087722218e+00 -8.1090314250016160e+00 0.0000000000000000e+00  1.5588020509426129e-01 1.7019443427016213e+01 0.0000000000000000e+00  -1.0137194206004875e+01 4.7862954569043641e+00 0.0000000000000000e+00  -9.5911485259704783e+00 -3.4604852035109646e-01 0.0000000000000000e+00  -2.7975850813498155e+00 -1.1039713635727683e+01 0.0000000000000000e+00  -9.7848761039549437e-01 -1.1163080560356414e+01 0.0000000000000000e+00  6.1225888615321793e+00 -4.9827597084905708e+00 0.0000000000000000e+00  2.9976690948537641e+00 1.1336951020630389e+01 0.0000000000000000e+00  3.5716681686586700e+00 1.1552612696281704e+01 0.0000000000000000e+00  -6.1776649683083118e+00 -9.6516606813768657e+00 0.0000000000000000e+00  8.7683500188635595e+00 -5.1548913965610028e+00 0.0000000000000000e+00  3.5204450282790689e+00 5.4496899546223458e+00 0.0000000000000000e+00  -4.0242317968393273e+00 -6.8432808322717760e+00 0.0000000000000000e+00  -2.5366371004837283e+00 8.6193168409296366e+00 0.0000000000000000e+00  5.0867216275766296e+00 5.9752983922291731e+00 0.0000000000000000e+00  -1.7573613574683167e-01 -7.8669967423739084e+00 0.0000000000000000e+00  -7.6112133923772110e+00 -1.9086818160002637e+00 0.0000000000000000e+00  -3.8546263190368313e+00 1.4796779419061439e+01 0.0000000000000000e+00  -6.5241004861308722e+00 -7.0825768222160921e+00 0.0000000000000000e+00  9.5605775678089877e+00 2.2887698440863635e-01 0.0000000000000000e+00  1.3468915456890547e+00 6.0060096299333416e+00 0.0000000000000000e+00  1.1193823669359155e+00 1.3248092224846262e+01 0.0000000000000000e+00  6.6550057348055853e+00 -4.2114874184725082e+00 0.0000000000000000e+00  -4.1167202024393754e+00 8.3112587469755592e+00 0.0000000000000000e+00  -7.7206502639698247e+00 -1.0827413263670966e+00 0.0000000000000000e+00  -8.0512245107610241e+00 4.4552575625327187e+00 0.0000000000000000e+00  7.3458962826999823e+00 2.4415527901152316e+00 0.0000000000000000e+00  3.5247761222574296e+00 -8.7819772586658509e+00 0.0000000000000000e+00  5.9018779537999579e+00 5.0603310882679073e+00 0.0000000000000000e+00  3.6788413935634035e+00 -6.8829767265413642e+00 0.0000000000000000e+00  -3.3119778433602249e+00 1.1143046405543442e+01 0.0000000000000000e+00  -7.3518541751783006e+00 1.2707818176227464e+01 0.0000000000000000e+00  4.4163573112559105e+00 -6.5123982881481615e+00 0.0000000000000000e+00  3.5662133834996115e+00 7.9142422646490429e+00 0.0000000000000000e+00  5.1435182160444350e+00 -5.9838168827587426e+00 0.0000000000000000e+00  -7.3071117662726381e-01 3.8764317007144915e+00 0.0000000000000000e+00  -9.3982695543275696e+00 6.6187402386038166e+00 0.0000000000000000e+00  6.4470811198245326e-01 -7.7691784707460094e+00 0.0000000000000000e+00  -1.4304335073049341e+00 -9.1343774068760268e+00 0.0000000000000000e+00  -1.7081072816370415e+00 7.6542317939533788e+00 0.0000000000000000e+00  6.7639606962623837e+00 -5.8207423714746334e+00 0.0000000000000000e+00  6.9792859737249096e+00 -3.4650017258497217e+00 0.0000000000000000e+00  7.7994074555349364e+00 5.5912127850563049e+00 0.0000000000000000e+00  2.9807434253132912e+00 1.3964214214438895e+01 0.0000000000000000e+00  6.0056672187592142e+00 -6.5863814179929232e+00 0.0000000000000000e+00  -1.0912055571953889e+01 -3.2854901989557712e+00 0.0000000000000000e+00  1.4101785171169681e+00 1.1161288008240232e+01 0.0000000000000000e+00  -8.6784568685468422e+00 -4.1377950783939532e+00 0.0000000000000000e+00  -6.7337462406154982e+00 -5.7855923638135263e+00 0.0000000000000000e+00  -3.9048921300441686e+00 1.4005512256708990e+01 0.0000000000000000e+00  -5.2196730569498528e-01 1.2801825850754165e+01 0.0000000000000000e+00  3.6533821387438681e+00 -1.1165339480899716e+01 0.0000000000000000e+00  9.4554789951486136e+00 -1.4604830711679599e+00 0.0000000000000000e+00  -2.9648558577730282e+00 -8.8148687341716272e+00 0.0000000000000000e+00  7.9365113080076872e+00 -4.7881880374284664e+00 0.0000000000000000e+00  -9.8723386073666797e-01 8.6335367736082205e+00 0.0000000000000000e+00  -4.7026708542215960e+00 6.2993477354375536e+00 0.0000000000000000e+00  -6.2319938755282314e+00 4.7664157243429646e+00 0.0000000000000000e+00  5.3943875607103990e+00 1.2909876078984569e+01 0.0000000000000000e+00  -1.0120953750927100e+01 -5.3788317513285957e+00 0.0000000000000000e+00  1.4553262512571072e+00 1.4407086206338525e+01 0.0000000000000000e+00  -5.2115980312779187e-01 1.1166771285414157e+01 0.0000000000000000e+00  -4.0145990997877004e+00 1.0199765857636573e+01 0.0000000000000000e+00  -5.5685232215873874e+00 -6.9676464775260518e+00 0.0000000000000000e+00  -2.8335592069663424e+00 8.9055399272461493e+00 0.0000000000000000e+00  -8.9402114509972164e-01 1.6662174862727557e+01 0.0000000000000000e+00  -2.1475119832650900e+00 -1.3155071458216218e+01 0.0000000000000000e+00  -1.1650551036276687e+01 6.5754845844970813e+00 