<?xml version="1.0"?>
<VTKFile type="UnstructuredGrid"  version="0.1"  >
<UnstructuredGrid>
<Piece  NumberOfPoints="780" NumberOfCells="1462">
<Points>
<DataArray  type="Float64"  NumberOfComponents="3"  format="ascii">0.3 2.3 0  3 0 0  1.5 0 0  0.2975370041469738 2.338363148505352 0  0.2901884589117088 2.376096375172852 0  0.2780750272038065 2.412580101463812 0  0.2613956112370167 2.447215265601181 0  0.2404240865603869 2.479433159147365 0  0.2155048050293181 2.508704765181046 0  0.1870469405576198 2.534549444740409 0  0.1555177704931572 2.556542828901604 0  0.1214350029367179 2.574323786904744 0  0.08535827598930948 2.587600355910998 0  0.04787996851001353 2.596154535024335 0  0.009615473271496266 2.599845864860206 0  -0.02880690777230486 2.598613733884759 0  -0.06675628018689482 2.592478373654547 0  -0.1036095163263927 2.581540526614928 0  -0.1387614870722511 2.5659797919119 0  -0.1716349980366514 2.546051676379086 0  -0.2016902670783955 2.522083399122594 0  -0.2284337875107408 2.494468518592336 0  -0.2514264314675524 2.463660470363164 0  -0.270290660370726 2.430165121735267 0  -0.2847167241032008 2.394532465407086 0  -0.2944677470973197 2.357347588610411 0  -0.2993836178251009 2.319221065994213 0  -0.2993836178251009 2.280778934005785 0  -0.2944677470973195 2.242652411389588 0  -0.2847167241032005 2.205467534592913 0  -0.2702906603707256 2.169834878264732 0  -0.2514264314675521 2.136339529636835 0  -0.2284337875107404 2.105531481407664 0  -0.2016902670783951 2.077916600877405 0  -0.1716349980366512 2.053948323620913 0  -0.1387614870722508 2.0340202080881 0  -0.1036095163263924 2.018459473385072 0  -0.06675628018689463 2.007521626345453 0  -0.02880690777230473 2.00138626611524 0  0.009615473271496191 2.000154135139793 0  0.04787996851001352 2.003845464975665 0  0.0853582759893096 2.012399644089002 0  0.1214350029367179 2.025676213095256 0  0.1555177704931573 2.043457171098396 0  0.1870469405576198 2.065450555259591 0  0.2155048050293181 2.091295234818954 0  0.2404240865603868 2.120566840852635 0  0.2613956112370167 2.152784734398818 0  0.2780750272038064 2.187419898536187 0  0.2901884589117087 2.223903624827147 0  0.2975370041469738 2.261636851494648 0  2.975370041469738 0.3836314850535185 0  2.901884589117088 0.760963751728523 0  2.780750272038065 1.125801014638124 0  2.613956112370167 1.472152656011815 0  2.404240865603869 1.79433159147365 0  2.155048050293181 2.087047651810461 0  1.870469405576198 2.345494447404091 0  1.555177704931572 2.56542828901604 0  1.214350029367178 2.743237869047439 0  0.8535827598930935 2.876003559109983 0  0.4787996851001333 2.961545350243351 0  0.09615473271496067 2.998458648602064 0  -0.28806907772305 2.986137338847594 0  -0.6675628018689488 2.92478373654547 0  -1.036095163263929 2.815405266149279 0  -1.387614870722512 2.659797919118997 0  -1.716349980366516 2.460516763790863 0  -2.016902670783956 2.220833991225941 0  -2.284337875107409 1.944685185923358 0  -2.514264314675527 1.636604703631638 0  -2.702906603707262 1.301651217352665 0  -2.847167241032009 0.9453246540708524 0  -2.944677470973198 0.5734758861041045 0  -2.993836178251009 0.1922106599421264 0  -2.993836178251008 -0.1922106599421536 0  -2.944677470973194 -0.5734758861041299 0  -2.847167241032002 -0.9453246540708744 0  -2.702906603707251 -1.301651217352687 0  -2.514264314675514 -1.636604703631658 0  -2.284337875107395 -1.944685185923375 0  -2.01690267078394 -2.220833991225956 0  -1.716349980366497 -2.460516763790876 0  -1.387614870722494 -2.659797919119006 0  -1.036095163263912 -2.815405266149285 0  -0.6675628018689334 -2.924783736545473 0  -0.2880690777230367 -2.986137338847596 0  0.09615473271497524 -2.998458648602063 0  0.4787996851001458 -2.961545350243349 0  0.8535827598931036 -2.87600355910998 0  1.214350029367186 -2.743237869047435 0  1.555177704931578 -2.565428289016037 0  1.870469405576202 -2.345494447404088 0  2.155048050293185 -2.087047651810457 0  2.404240865603871 -1.794331591473647 0  2.613956112370168 -1.472152656011814 0  2.780750272038065 -1.125801014638124 0  2.901884589117087 -0.760963751728525 0  2.975370041469738 -0.3836314850535199 0  1.487685020734869 0.1918157425267593 0  1.450942294558544 0.3804818758642615 0  1.390375136019032 0.5629005073190618 0  1.306978056185084 0.7360763280059076 0  1.202120432801934 0.8971657957368249 0  1.077524025146591 1.04352382590523 0  0.9352347027880992 1.172747223702046 0  0.7775888524657859 1.28271414450802 0  0.6071750146835891 1.37161893452372 0  0.4267913799465468 1.438001779554992 0  0.2393998425500666 1.480772675121676 0  0.04807736635748033 1.499229324301032 0  -0.144034538861525 1.493068669423797 0  -0.3337814009344744 1.462391868272735 0  -0.5180475816319644 1.407702633074639 0  -0.6938074353612562 1.329898959559498 0  -0.858174990183258 1.230258381895431 0  -1.008451335391978 1.110416995612971 0  -1.142168937553705 0.9723425929616789 0  -1.257132157337764 0.818302351815819 0  -1.351453301853631 0.6508256086763325 0  -1.423583620516005 0.4726623270354262 0  -1.472338735486599 0.2867379430520522 0  -1.496918089125505 0.09610532997106321 0  -1.496918089125504 -0.09610532997107679 0  -1.472338735486597 -0.286737943052065 0  -1.423583620516001 -0.4726623270354372 0  -1.351453301853625 -0.6508256086763435 0  -1.257132157337757 -0.8183023518158289 0  -1.142168937553698 -0.9723425929616873 0  -1.00845133539197 -1.110416995612978 0  -0.8581749901832485 -1.230258381895438 0  -0.6938074353612471 -1.329898959559503 0  -0.518047581631956 -1.407702633074643 0  -0.3337814009344667 -1.462391868272737 0  -0.1440345388615184 -1.493068669423798 0  0.04807736635748762 -1.499229324301032 0  0.2393998425500729 -1.480772675121675 0  0.4267913799465518 -1.43800177955499 0  0.607175014683593 -1.371618934523718 0  0.777588852465789 -1.282714144508018 0  0.9352347027881011 -1.172747223702044 0  1.077524025146592 -1.043523825905228 0  1.202120432801935 -0.8971657957368233 0  1.306978056185084 -0.7360763280059068 0  1.390375136019032 -0.5629005073190618 0  1.450942294558544 -0.3804818758642625 0  1.487685020734869 -0.19181574252676 0  0.2877736410539565 2.487319881915789 0  -0.246587060792263 2.538806251268189 0  1.275972761737523 -2.200729179033895 0  0.3036783627909754 2.035376302627057 0  1.663116993196883 -0.1067756536398424 0  -1.372563936970318 1.493336835643126 0  2.099180607894271 0.4537272375049011 0  -0.1280292480793861 1.849668853317526 0  1.326195738790389 -1.510736525378084 0  -0.01029442221563963 2.633704411489678 0  0.3386064174939502 2.324046550831774 0  2.030327426461297 -0.7224293242857935 0  1.559426551170428 -1.274279603708838 0  -1.951826832657239 -1.856699377288094 0  1.596203288967205 1.699734991151157 0  -1.696727971972026 -2.092649093521242 0  0.8251367635886433 2.284010489165031 0  -0.668594092114603 -1.510164067208574 0  0.9905711600440241 -1.778816030378368 0  -1.1508613182541 -2.197100421775222 0  -1.306375891430083 -1.835070174107889 0  2.23626309568761 -1.185483607838075 0  1.821213208385134 -0.8694077937272722 0  0.1567467768943238 1.784484913833746 0  -0.4231860998980227 -2.646199889388834 0  -2.49961110870034 -1.022208116473871 0  0.8236286756140458 2.560379182259269 0  -0.6527350622172436 1.500415353796168 0  -1.323706607182951 -0.987907916004173 0  0.4436301739489063 -2.124585230022485 0  0.8038343549603352 2.069876054609529 0  -2.158093372839906 -0.698947687517864 0  0.2347055240234879 1.969839247295811 0  0.03830339437731362 2.663911443477038 0  -2.131068400706572 0.310742892199517 0  0.6012746352353948 2.68917307459466 0  0.2971363653926395 1.651303722574493 0  -0.273239030481493 2.096176442649231 0  -0.97081543280461 1.741665551131929 0  1.262288344543381 1.078704896273318 0  0.3285225531772046 2.40927433693416 0  -2.339600186795871 1.306675918092683 0  -0.2993120299910985 2.468569394812123 0  1.526195160722415 2.258168678360891 0  1.958537310263609 0.8985790528315145 0  -1.646522188364986 -0.2150245151415698 0  -0.2089475831931108 2.568392962454227 0  1.913894633149875 0.6357937010906517 0  -0.2107488027685992 2.035729360118284 0  0.2378581263201008 -2.009606945264506 0  -1.961455480369948 0.4776119330158055 0  0.7791412139458459 1.46621047837902 0  -1.359112885269097 2.349710207027801 0  -1.864011421101278 1.257590945869169 0  1.310719548992684 2.425242388986704 0  -1.185628616326569 1.144463014457963 0  -0.8959211820503096 2.140444069765028 0  0.1557818716539923 2.001395317386582 0  0.9663107447378187 1.758709197078618 0  -0.4054060093055652 2.61352099970444 0  -1.911381627858147 1.6737364711717 0  -0.769169660943953 -2.640748556140519 0  -2.403383125111121 -1.337506806713901 0  0.2582067971830622 2.525322421523435 0  2.778517714168509 -0.1719357898291832 0  0.4909229879649218 1.945714874619405 0  -1.336103092013128 -1.346005971157745 0  -0.01314996076171939 1.842403166968202 0  -1.744955476473075 0.8217188008789633 0  -2.252419554119013 -0.08197945197480432 0  -0.4684724102399133 -1.843760673829241 0  -0.1685105033346208 -1.921378570937348 0  2.130386938213253 -1.730091020394836 0  -0.2929456284299079 2.00428761622828 0  0.6516112302956835 1.718117002850457 0  -1.017777745178119 -1.592102040379578 0  1.834636747325094 -1.078217064788511 0  -0.3116888150367217 2.173811184072085 0  -1.379625005331907 -2.35534310728774 0  -0.4868050803385185 2.755121219825461 0  1.777439625834664 2.088972146689593 0  -0.06170866191319609 -2.755407461858063 0  -2.679307810986296 -0.6733335479291733 0  -0.1190524647765357 2.643808234756202 0  -1.522984130408045 -1.656449404065874 0  2.260862909944211 0.05300198152598493 0  0.4285977391561666 2.264829760889068 0  0.3847927231203499 1.768955014159002 0  2.326393789342716 -1.470261016027689 0  -1.045488325951667 2.034235832725821 0  -2.753605733578825 -0.3846829945599392 0  -2.057501456691318 1.132005505435226 0  2.663912752207367 0.8834646851045026 0  0.8530905344495884 -2.121087928219497 0  2.114885599672032 1.809283361032109 0  1.309733121037103 -2.450784674428401 0  -0.6630412601826312 1.772598798124445 
[...]
<PointData  Scalars="f_30"> 
<DataArray  type="Float64"  Name="f_30"  format="ascii">5.5669320497114629e+00  0.0000000000000000e+00  1.4999999999999998e+01  5.4960261625670839e+00  5.4280278003936839e+00  5.3638348132091558e+00  5.3041780042904083e+00  5.2496574645593235e+00  5.2006830504782036e+00  5.1573497123212642e+00  5.1217162280851731e+00  5.0925124111766227e+00  5.0708618296247954e+00  5.0568500854617371e+00  5.0512122212658666e+00  5.0531698859531877e+00  5.0629570597199098e+00  5.0810776767076753e+00  5.1060436690094848e+00  5.1390629057108175e+00  5.1785845274357163e+00  5.2243860245886298e+00  5.2762662721364153e+00  5.3333736973175139e+00  5.3954641195857276e+00  5.4615847517476164e+00  5.5311733799377762e+00  5.6032195163717793e+00  5.6767977199124653e+00  5.7508582749881327e+00  5.8241180405518307e+00  5.8952635652195529e+00  5.9627509250925277e+00  6.0251909609717700e+00  6.0808588384925546e+00  6.1283483018631699e+00  6.1660816080974872e+00  6.1931007857756679e+00  6.2086271098768711e+00  6.2117255584795075e+00  6.2021109601055517e+00  6.1809682593498803e+00  6.1484932585937200e+00  6.1057051674116813e+00  6.0539883532955923e+00  5.9946839261881166e+00  5.9295501805330337e+00  5.8599907379037868e+00  5.7876959772546428e+00  5.7138544819661234e+00  5.6399251044909091e+00  0.0000000000000000e+00  0.0000000000000000e+00  0.0000000000000000e+00  0.0000000000000000e+00  0.0000000000000000e+00  0.0000000000000000e+00  0.0000000000000000e+00  0.0000000000000000e+00  0.0000000000000000e+00  0.0000000000000000e+00  0.0000000000000000e+00  0.0000000000000000e+00  0.0000000000000000e+00  0.0000000000000000e+00  0.0000000000000000e+00  0.0000000000000000e+00  0.0000000000000000e+00  0.0000000000000000e+00  0.0000000000000000e+00  0.0000000000000000e+00  0.0000000000000000e+00  0.0000000000000000e+00  0.0000000000000000e+00  0.0000000000000000e+00  0.0000000000000000e+00  0.0000000000000000e+00  0.0000000000000000e+00  0.0000000000000000e+00  0.0000000000000000e+00  0.0000000000000000e+00  0.0000000000000000e+00  0.0000000000000000e+00  0.0000000000000000e+00  0.0000000000000000e+00  0.0000000000000000e+00  0.0000000000000000e+00  0.0000000000000000e+00  0.0000000000000000e+00  0.0000000000000000e+00  0.0000000000000000e+00  0.0000000000000000e+00  0.0000000000000000e+00  0.0000000000000000e+00  0.0000000000000000e+00  0.0000000000000000e+00  0.0000000000000000e+00  0.0000000000000000e+00  0.0000000000000000e+00  1.5000000000000002e+01  1.5000000000000000e+01  1.5000000000000000e+01  1.5000000000000000e+01  1.5000000000000000e+01  1.4999999999999998e+01  1.4999999999999998e+01  1.4999999999999998e+01  1.5000000000000002e+01  1.5000000000000000e+01  1.5000000000000000e+01  1.5000000000000000e+01  1.5000000000000000e+01  1.5000000000000000e+01  1.5000000000000000e+01  1.5000000000000000e+01  1.5000000000000002e+01  1.5000000000000002e+01  1.5000000000000000e+01  1.4999999999999998e+01  1.5000000000000000e+01  1.5000000000000000e+01  1.5000000000000000e+01  1.5000000000000002e+01  1.5000000000000000e+01  1.5000000000000000e+01  1.4999999999999998e+01  1.5000000000000000e+01  1.5000000000000000e+01  1.5000000000000000e+01  1.5000000000000000e+01  1.5000000000000000e+01  1.5000000000000000e+01  1.5000000000000000e+01  1.5000000000000000e+01  1.5000000000000000e+01  1.5000000000000000e+01  1.5000000000000000e+01  1.5000000000000000e+01  1.5000000000000000e+01  1.5000000000000000e+01  1.5000000000000000e+01  1.5000000000000000e+01  1.5000000000000002e+01  1.5000000000000000e+01  1.5000000000000000e+01  1.5000000000000002e+01  1.5000000000000002e+01  4.8278174704325867e+00  4.6639170236544611e+00  3.5391429893413742e+00  7.0433526307653631e+00  1.2691190970106309e+01  8.4056037178806982e+00  7.2010733633507407e+00  9.1374502746080744e+00  8.6342780325732296e+00  4.4831626695468048e+00  5.3999500800900577e+00  7.1289207446221496e+00  8.5955919782366816e+00  2.2976936732069215e+00  5.3952197414326175e+00  2.2957839960724034e+00  4.4764147101217961e+00  1.2887127843907116e+01  8.3590612246681761e+00  4.0865963399959080e+00  6.1710730892076553e+00  3.6485178549877690e+00  8.5498578915005119e+00  1.0192106417060820e+01  2.4106134971632640e+00  2.2436090809184823e+00  2.3664424638574322e+00  1.2993722538087640e+01  1.2884905713218147e+01  6.9750716643232682e+00  6.3163987856228605e+00  6.0189879526656345e+00  7.5803547449987532e+00  3.9995177465872578e+00  7.1417355248254211e+00  1.9766048721845577e+00  1.2140232907478065e+01  6.3330606879851494e+00  8.6984091916525763e+00  1.2761307457641379e+01  5.0711688983514920e+00  2.4072966165679248e+00  4.8877926974689379e+00  2.0250292922269435e+00  7.1250772133951790e+00  1.2769886109414259e+01  4.6023602124102752e+00  8.5611424372986420e+00  6.6072297388735732e+00  8.4912349129877320e+00  8.5408889097041278e+00  1.2701797702006838e+01  2.1099229005838600e+00  6.1981341570583179e+00  1.7791226561934792e+00  1.2922564072611971e+01  5.4192818521255735e+00  6.7726207030447236e+00  8.5572332077607580e+00  3.2046734996990716e+00  3.5533010509093028e+00  1.8473898991958300e+00  1.8473796990841054e+00  4.7110743546742464e+00  1.5866360823706891e+00  8.1554019900377863e+00  9.8942330337583577e+00  9.1782962351492436e+00  9.5245335034361389e+00  6.1571494390970285e+00  9.8282460798269149e+00  9.5301715671583906e+00  1.8954749287896338e+00  7.3482458912523851e+00  1.0342228167370539e+01  9.9736192765220775e+00  7.4021324193885123e+00  5.9692081999935347e+00  2.0120600038884535e+00  1.7299648943689110e+00  1.8948439898500813e+00  1.8030664030610635e+00  1.7515894817504889e+00  4.0949588400839803e+00  6.1943772017217702e+00  6.0843577340174999e+00  5.5223363763280719e+00  1.0358423349036633e+01  1.8348863362312688e+00  5.7484000555388688e+00  1.6133285253346963e+00  5.2626425747361285e+00  1.4095291775329697e+00  5.8501340972974978e+00  1.5851399001530266e+00  1.6254625966571477e+00  9.6840348491735941e+00  6.4736629911256722e+00  1.8131265930210745e+00  3.4841949923165081e+00  1.8837376618126778e+00  5.7266417095088649e+00  1.0008872804041028e+01  1.6074954157121943e+00  5.3519684736369921e+00  5.6945090581650142e+00  4.5646277856897459e+00  1.5885834935300092e+00  6.1617105165707819e+00  7.8563462698753579e+00  4.5481469818815725e+00  9.8516814823101537e+00  7.8155818574612779e+00  6.1753139907183154e+00  4.4717022718545545e+00  1.3255977782413135e+01  8.9627648433784124e+00  1.0544163500374765e+01  6.0882335822837117e+00  5.4889405705929395e+00  5.3864378180085906e+00  6.7832408691849233e+00  1.9758828803702919e+00  1.8118831863105929e+00  4.2184889226680893e+00  9.9736407815886015e+00  8.9027376597609464e+00  8.1260660649185645e+00  8.8703002319438760e+00  4.5697274025784766e+00  6.5290418443946319e+00  9.0992625007153798e+00  1.3224572769669193e+01  1.3272345892351156e+01  4.7819279736535600e+00  4.9477301460778706e+00  8.0613511507384548e+00  7.7698991624168974e+00  7.5808677273131950e+00  7.0252517096433023e+00  4.6011932774554554e+00  7.4282930020058524e+00  6.5713732335358097e+00  5.9761549095224407e+00  4.6384163072738325e+00  5.5187579624926828e+00  4.7381471787838532e+00  1.0571994760585417e+01  1.3187328251130360e+01  5.3289524195821683e+00  6.1545952500674295e+00  8.0791816675189558e+00  8.0790410429369111e+00  6.7682058387568427e+00  1.6040626169970076e+00  4.9493111641720695e+00  9.6250530154526643e+00  1.0535187037553980e+01  1.0654986041860123e+01  3.8261185321897173e+00  1.1703436867182130e+01  5.3882324532894188e+00  5.2888630076365315e+00  4.9641184153183326e+00  1.0356843682247144e+01  7.3298529969540667e+00  1.3154313040904276e+01  5.8715433354107081e+00  1.0653235367415997e+01  6.7379953643270678e+00  1.3240882066045325e+01  1.3292482940798360e+01  1.3251952006052109e+01  1.3352382487213033e+01  5.6512840245956726e+00  3.8133875306882135e+00  9.4669534189867406e+00  6.0241596649764499e+00  7.9348016596774205e+00  1.8732233638085771e+00  8.2509064895365984e+00  4.3961596152770008e+00  4.4321256320240430e+00  1.2653820723624802e+01  1.2021182161125640e+01  1.2180591461093325e+01  6.9885957117650817e+00  1.2032942062440558e+01  1.2550624818175047e+01  1.2379596548047550e+01  6.7700720271189949e+00  9.5481695347347149e+00  7.9528573078709659e+00  6.9233171904059878e+00  7.8813784936908160e+00  5.1597049007050675e+00  5.6506982095807112e+00  6.9840286839278631e+00  1.2717019711285127e+01  5.9152300610923305e+00  7.0248817330439728e+00  3.9425464271652655e+00  1.2563792539413958e+01  4.8222532985784978e+00  6.2348307055770418e+00  1.2254101891457012e+01  6.7570476026180586e+00  1.2446840326583276e+01  1.2692613367448365e+01  6.4777240089664057e+00  2.0633654006473465e+00  1.2246879945759625e+01  1.2600267250865558e+01  2.3720147057820196e+00  2.5029960514271039e+00  5.4991367235814828e+00  6.8105627673695333e+00  8.5185771697460577e+00  1.2693890837422613e+01  1.1962878150526841e+01  6.8562051005818896e+00  5.5480270976146135e+00  6.7962181138567050e+00  1.2687063909342220e+01  6.2384731074864357e+00  6.4663964028974155e+00  2.2269473719216748e+00  7.0591665105076000e+00  5.8367437007812688e+00  1.2694526981170974e+01  3.9171358901943667e+00  1.1497957847678656e+01  5.1872985556080540e+00  6.9471856989910963e+00  1.2361290827368846e+01  1.2673871355133093e+01  6.4940264889120236e+00  3.8361707643598888e+00  4.4812531324630864e+00  2.3630385313019042e+00  6.5546440975520746e+00  3.4967683031341088e+00  1.2684709796518579e+01  4.6364876184196362e+00  2.5070558498714153e+00  2.5071859669666257e+00  2.5110151975492991e+00  1.1886518272153195e+01  1.2209100021717251e+01  1.0184365968560003e+01  1.0930949882665752e+01  9.9313439779716326e+00  3.9552353047165352e+00  3.8321018652841090e+00  1.1080431184463972e+01  1.1889347483821863e+01  1.1978539760913346e+01  5.6548373787312078e+00  5.2451329131481632e+00  4.1353779103637143e+00  5.1919586973942797e+00  6.7111454763518674e+00  3.8909330154002983e+00  1.1074154737474139e+01  7.5174101027693645e+00  8.3966251562235890e+00  8.0311826858178392e+00  8.4008167050036917e+00  3.9373583259184652e+00  9.9279953237186511e+00  1.0203409655266087e+01  5.2843266732832648e+00  5.2833518398137969e+00  1.0648833615377411e+01  5.3594800600798953e+00  4.0776740076555251e+00  7.5586828283647032e+00  6.1524203020192001e+00  1.1084641654966338e+01  1.1865743046118469e+01  1.1886043183787038e+01  7.4864819210141480e+00  1.2239594806998443e+01  1.0709857254763383e+01  3.9458177674320898e+00  3.9263322501183553e+00  4.3053919565286520e+00  1.0066725274539339e+01  5.1257094098646920e+00  3.6942067302162163e+00  3.9318915687739904e+00  4.1028336328700385e+00  1.0623977045175454e+01  4.0673318198404145e+00  1.0556364997855480e+01  7.2078996366838446e+00  5.2770872730006282e+00  5.7712131289769859e+00  3.7665997495972694e+00  1.0930840717457674e+01  1.1088075133419116e+01  7.0169403448454171e+00  6.3075207337333481e+00  1.0203434754091647e+01  3.8152956444698476e+00  1.0203006881880830e+01  5.2842136133851980e+00  3.8962155851702205e+00  1.0295474378060637e+01  1.0690180897889595e+01  1.1392386900435604e+01  1.2350313307941175e+01  7.9480167809119751e+00  3.3702589168329871e+00  3.2165548053459583e+00  3.3618006160725908e+00  2.9570573423122464e+00  8.3944732617130651e+00  2.7614117544834587e+00  8.9924791089427778e+00  3.4045898833603006e+00  3.1338547414414788e+00  3.4894386048377539e+00  7.5282225253725414e+00  6.6287349156532027e+00  8.5330634623608184e+00  8.4145187789145499e+00  7.8594268979660704e+00  1.2350331506387047e+01  2.9871110696236878e+00  5.4739870497271044e+00  7.8631988399747712e+00  4.8688381441961521e+00  2.6454698383911164e+00  7.4295878339311381e+00  7.3393640545129335e+00  2.9318213189760511e+00  1.2562223675983267e+01  1.2350307318252790e+01  3.4590447255238677e+00  2.9619772406967986e+00  1.2365876275187997e+01  2.6021453824228424e+00  7.6611005573366464e+00  7.5701486279128876e+00  7.9479635771092925e+00  3.7853522152627792e+00  3.2424383336637592e+00  1.1730586064728197e+01  1.2425785576894196e+01  2.6380959355939293e+00  6.9669554368527828e+00  6.8191556152615709e+00  1.0187392597861578e+01  1.0702278147377214e+01  5.7869820236155007e+00  2.9121272957805466e+00  2.5945279697020371e+00  6.1425874099217195e+00  8.1954993270282976e+00  3.6984985246664550e+00  5.9261087613003172e+00  5.8795351960056932e+00  6.2918784215959986e+00  6.1515573938579839e+00  5.2896169784201579e+00  3.5097628392168332e+00  5.7358463690783692e+00  5.1041078344866930e+00  2.5195382365166799e+00  4.8732304322824813e+00  5.6023018012600234e+00  2.5408492515687744e+00  8.1199409826406566e+00  6.9474207108566857e+00  7.9876351607713580e+00  2.4546848657803331e+00  6.0086566959590275e+00  6.1509147076803590e+00  4.7193543825552897e+00  9.1136873143568682e+00  8.0475426705925450e+00  9.7592788316213905e+00  9.6682920756089921e+00  9.7771917830349970e+00  6.4311480506962448e+00  9.5107728769860902e+00  7.1915759054980075e+00  8.9545107713069569e+00  9.6679938187272452e+00  6.1483135118807946e+00  9.7394629205326613e+00  2.9980596415657619e+00  4.5872429882304031e+00  9.4081605208603296e+00  9.4691241380027833e+00  4.4636952808568573e+00  6.5644946608267905e+00  8.6943680564774457e+00  8.2413821760294095e+00  8.2412716312338468e+00  6.1508215851845911e+00  7.4078209221997735e+00  8.0770184394278086e+00  8.0158211227769645e+00  2.3716811762431940e+00  6.7284085857426748e+00  4.2831971780268701e+00  9.7756073380821942e+00  7.7323043482452833e+00  1.0450789210428896e+01  6.0011854627120558e+00  5.1548345936319775e+00  5.4477387796357419e+00  5.4230162092852643e+00  5.9630262427716971e+00  5.5978199856970159e+00  5.9151570517050986e+00  5.6508830793492404e+00  5.2446787487769768e+00  5.7651971599690306e+00  5.8003025594268314e+00  5.5241068920481293e+00  5.7594460292004488e+00  5.6453453943011791e+00  5.6614599234736396e+00  5.3016278713260752e+00  5.4670169287552151e+00  5.5524612174857584e+00  5.8399339987797534e+00  5.7801739759651589e+00  5.3223011281577746e+00  5.7117957483836763e+00  6.0755121239741232e+00  5.1583745515268307e+00  5.2171881421624171e+00  6.0412559686116509e+00  5.3261199500035419e+00  5.7039519394238773e+00  5.3648368606245240e+00  5.5338047633842118e+00  5.3342295507291100e+00  5.5991768909942810e+00  5.6222771093025825e+00  5.9433549574408904e+00  5.8674108682447992e+00  5.5311526387198633e+00  5.2880337038767786e+00  5.8073843611614402e+00  5.7082742564925946e+00  5.4510036551247376e+00  5.4326511754576980e+00  5.2734193325895085e+00  5.8691865340422957e+00  5.3323081265832375e+00  6.1170693733975083e+00  5.3929544277492392e+00  5.1890795178163343e+00  5.5298597403810730e+00  5.5114576709379826e+00  5.8193139018762183e+00  5.1654769793548869e+00  5.6860509012910168e+00  5.2648233715796682e+00  5.6339687382009336e+00  5.9277271472049744e+00  5.9807617533495243e+00  5.4265266920436828e+00  5.1547820802159050e+00  6.0859899784992306e+00  5.8636347941677931e+00  5.5796714409273678e+00  5.9205864303993652e+00  5.6139205485576937e+00  5.7963890512713903e+00  5.6927111212441721e+00  5.6479816928034960e+00  5.5242634649076399e+00  5.1146587708654385e+00  5.7297827302088651e+00  5.1800268406343539e+00  5.4693883079544197e+00  5.5927597006691459e+00  5.4803340654836523e+00  5.7847543213878740e+00  5.8051970953780394e+00  6.0984459181560702e+00  5.7985306324425530e+00  5.3843499241656625e+00  5.5751311683521267e+00  5.8677934537143219e+00  5.2288234044023270e+00  5.3864446782191209e+00  6.0335371026282711e+00  5.2409015863297324e+00  6.1462557624238174e+00  5.1716923077598356e+00  6.0539964961795265e+00  5.5559498974078574e+00  5.3653521451890516e+00  5.2960932339536511e+00  5.9239863389849079e+00  5.5009875178278920e+00  6.1098425725707042e+00  5.1409657372552466e+00  5.2843716042028523e+00  5.3947145126766056e+00  5.8848856966397545e+00  5.3966650035087902e+00  5.3654045648476947e+00  5.2981238857698543e+00  5.4500412058394883e+00  5.2394276017423715e+00  5.6500128568974146e+00  5.5758460425609249e+00  5.6709671616390924e+00  5.5956999553498941e+00  5.3636491541818776e+00  5.5374297096624305e+00  5.7055652901672174e+00  5.8215928048684837e+00  5.9627160003415796e+00  5.3316755203877086e+00  5.9532339832852061e+00  5.9903015682737166e+00  5.4782884816791988e+00  5.9379170894291091e+00  5.1862688612622714e+00  5.7414658954874245e+00  5.4540647114033636e+00  5.8320975486067477e+00  5.9973266153970863e+00  5.9823756361973208e+00  5.2650503478120161e+00  6.0563959445851543e+00  5.1098571715346308e+00  5.3886536406814800e+00  5.3498028911042450e+00  5.4266176491655020e+00  5.3595227268635641e+00  5.3564539887882852e+00  5.7189755644285833e+00  5.6728463174884300e+00  5.8955629647604537e+00  5.5011340170142375e+00  5.8835029308830444e+00  5.6000401163087945e+00  5.3103196671515773e+00  5.5809387227979022e+00  5.2127951304790150e+00  5.8516654042491485e+00  6.0324290536140053e+00  5.2391586954493503e+00  5.7919331334861504e+00  5.7451333689014827e+00  6.0124728787084205e+00  5.3449241984955016e+00  5.6960160822480672e+00  5.4554494588409836e+00  5.9264327906103835e+00  5.5348986709755028e+00  5.4090815389764062e+00  5.2212954183044218e+00  5.5375913349768862e+00  5.7424698322261749e+00  5.4307785742339947e+00  5.6405870929556947e+00  5.7427689927667638e+00  5.4821580343514693e+00  5.6961740976468249e+00  5.8814089057319139e+00  5.7177318404527115e+00  5.7520951294051335e+00  5.5058881541877236e+00  5.2131287617156019e+00  6.0082939218085594e+00  5.2654778655915040e+00  5.3979295528972999e+00  5.4087434967322299e+00  5.1053946848618565e+00  5.7458505648850924e+00  5.6209763200181051e+00  5.8415419983663179e+00  5.4642342772272325e+00  6.0415296980339788e+00  5.9485980968033960e+00  6.1069043527473044e+00  5.3588941344289012e+00  5.4801384617817410e+00  5.2302622497601883e+00  5.8976498978252518e+00  5.5317344996934290e+00  5.4864491500415999e+00  5.5561615718395450e+00  5.4079430236865749e+00  5.5683491831855711e+00  5.6508787911953533e+00  5.1943606403858258e+00  6.1357250374778358e+00  5.9926801088820394e+00  5.3261525842827693e+00  5.4592730607705811e+00  5.7008310790486876e+00  5.5892451160869756e+00  5.5235289483820695e+00  5.2974251048823939e+00  5.4721836876110741e+00  5.7743115524430406e+00  5.5217628070655334e+00  5.7500909821262294e+00  5.7026242766186419e+00  5.4944413610314937e+00  5.7529998589476499e+00  5.4407164497418039e+00  5.9049770502924375e+00  5.5882489791116727e+00  5.6460016299603604e+00  5.4038717137451471e+00  5.9019867564100563e+00  5.8126265486801847e+00  5.8576007743050669e+00  5.6837703252760887e+00  5.3171452416525318e+00  5.1373306919586295e+00  5.8511417504023004e+00  5.5440866719483184e+00  5.4121481578378035e+00  5.5719956932096952e+00  5.2011760182421405e+00  5.0979818735098554e+00  5.2778629694851853e+00  6.0328162610184535e+00  5.3626794829004050e+00  </DataArray> 
</PointData> 
</Piece>
</UnstructuredGrid>
</VTKFile>