<?xml version="1.0"?>
<VTKFile type="UnstructuredGrid"  version="0.1"  >
<UnstructuredGrid>
<Piece  NumberOfPoints="408" NumberOfCells="764">
<Points>
<DataArray  type="Float64"  NumberOfComponents="3"  format="ascii">0.5 1.5 0  3 0 0  0.5 0 0  0.4883102778550433 1.607485220105512 0  0.4537877098354784 1.709944550780133 0  0.3980465328528216 1.802587107596883 0  0.3236931423909133 1.881081027563819 0  0.2342042203498944 1.941756022223012 0  0.1337641692646094 1.981774996259612 0  0.02706945429270747 1.999266706925562 0  -0.08089099827638369 1.993413261270763 0  -0.1850690776699587 1.964488359908395 0  -0.2805935326811922 1.913844499078444 0  -0.3629977459615664 1.843849729426711 0  -0.4284285880837952 1.75777692858851 0  -0.4738265855914016 1.659650765067989 0  -0.4970689785771799 1.55405950921197 0  -0.4970689785771797 1.445940490788028 0  -0.473826585591401 1.340349234932009 0  -0.428428588083794 1.242223071411488 0  -0.3629977459615645 1.156150270573287 0  -0.2805935326811901 1.086155500921554 0  -0.185069077669956 1.035511640091604 0  -0.08089099827638106 1.006586738729237 0  0.02706945429270968 1.000733293074438 0  0.1337641692646113 1.018225003740389 0  0.234204220349896 1.058243977776989 0  0.3236931423909143 1.118918972436182 0  0.3980465328528223 1.197412892403118 0  0.4537877098354786 1.290055449219868 0  0.4883102778550434 1.392514779894488 0  2.888751862043398 0.809390313471072 0  2.563258213639466 1.558751850106299 0  2.047659429655964 2.192507892834371 0  1.380195113193459 2.663655655207124 0  0.6103680391579052 2.937252263046968 0  -0.204727240094008 2.993006307571618 0  -1.004638836512953 2.826782766356463 0  -1.730040966344597 2.450909679031329 0  -2.327133872113255 1.893263832978164 0  -2.751633904516356 1.195203269538733 0  -2.97205783810899 0.4084999472887531 0  -2.972057838108994 -0.4084999472887274 0  -2.751633904516365 -1.19520326953871 0  -2.32713387211327 -1.893263832978145 0  -1.730040966344617 -2.450909679031315 0  -1.004638836512979 -2.826782766356454 0  -0.2047272400940353 -2.993006307571616 0  0.6103680391578843 -2.937252263046972 0  1.380195113193443 -2.663655655207132 0  2.047659429655955 -2.192507892834379 0  2.563258213639461 -1.558751850106308 0  2.888751862043396 -0.8093903134710783 0  0.4883102778550433 0.1074852201055122 0  0.4537877098354784 0.2099445507801326 0  0.3980465328528216 0.302587107596883 0  0.3236931423909133 0.3810810275638186 0  0.2342042203498944 0.4417560222230118 0  0.1337641692646094 0.4817749962596117 0  0.02706945429270747 0.499266706925562 0  -0.08089099827638369 0.4934132612707628 0  -0.1850690776699587 0.4644883599083952 0  -0.2805935326811922 0.4138444990784446 0  -0.3629977459615664 0.3438497294267107 0  -0.4284285880837952 0.2577769285885099 0  -0.4738265855914016 0.1596507650679891 0  -0.4970689785771799 0.05405950921197008 0  -0.4970689785771797 -0.05405950921197172 0  -0.473826585591401 -0.1596507650679908 0  -0.428428588083794 -0.2577769285885119 0  -0.3629977459615645 -0.3438497294267127 0  -0.2805935326811901 -0.4138444990784459 0  -0.185069077669956 -0.4644883599083962 0  -0.08089099827638106 -0.4934132612707633 0  0.02706945429270968 -0.4992667069255619 0  0.1337641692646113 -0.4817749962596112 0  0.234204220349896 -0.441756022223011 0  0.3236931423909143 -0.3810810275638178 0  0.3980465328528223 -0.3025871075968821 0  0.4537877098354786 -0.2099445507801321 0  0.4883102778550434 -0.1074852201055118 0  2.449326915020533 0.1445783015184512 0  0.1750768617923684 -1.591509227642119 0  -0.4956643426435631 1.856166633433662 0  -0.809975851913034 -1.885460640853531 0  -1.799750863548923 1.550134764991661 0  -1.087183982787626 -0.5958219679294048 0  -1.028707490683479 1.52121902021609 0  1.045620044294992 -0.332001343336091 0  -0.8789003920498543 0.02466298219083034 0  0.9055277058994466 -0.1285868844716475 0  -0.2538486964903905 0.5145594108492538 0  -0.256101149140612 0.9865834954926932 0  0.07993562842541392 0.8297943426768151 0  -2.164743063649349 1.150295891973621 0  -0.2540522329359374 -0.855457680517444 0  0.08821143208349357 0.6777288683670708 0  0.8790066392437215 1.596744565183638 0  1.623314403175982 -1.883510814994236 0  2.386528392374219 -0.6645724463228194 0  1.040901422784893 0.1725607721009028 0  0.6241478864384795 0.4797467320926844 0  1.18812818926081 1.671336521986154 0  0.5168262133478834 1.810935748950188 0  1.727263345707064 -0.07270495934963196 0  0.8010444450898847 0.6000420232784651 0  -0.7748321945140639 0.3904171569757778 0  1.965528156737208 1.680708233851678 0  -0.5154208596256235 -1.721391925154177 0  -0.05706358736588509 0.7255006763417958 0  -2.463474615809297 -0.7288096753849018 0  -1.073430983521223 -0.2179634885872086 0  -1.248875654762246 0.6320110901685018 0  -1.627645938836874 0.002989774528034386 0  0.1848437791166473 0.6942048927701073 0  -0.7807080782573537 -0.3611825939652471 0  1.406030105463165 0.4987925174071416 0  -0.5074193061801998 -0.9697103849113605 0  -0.1912483336597436 0.8286951204302155 0  -0.4474751240821551 0.3401617457817152 0  -1.167022811962334 2.289296103269721 0  1.110614328061611 -1.318611466149564 0  -0.196075919081523 0.6761447044873372 0  0.4944671807907145 1.20248896852999 0  -1.314149872912106 -1.013503821904706 0  0.7379299915934456 -1.176243621136708 0  0.09510223140120877 -0.5853553696170849 0  0.5840440236635634 1.559686360354062 0  -0.0765978966090201 0.8191258601986078 0  -0.2840189844668172 2.035716634936959 0  0.7555004387273055 -1.890687052307709 0  -0.5691817664408261 0.4967076842264466 0  -0.56918176644082 1.003292315773552 0  0.3317735478707203 -0.4882129537762074 0  -0.5842764112105829 -0.6525822495462413 0  -0.03083441414034562 0.9312926946600103 0  -1.053362385974071 0.2028579383100412 0  0.4863413636227473 -0.7677250049774836 0  -0.7855211116709919 1.110296603448821 0  -0.8923352622206268 -0.6443290947928575 0  0.1109779259793773 -2.37413704987551 0  1.502535281592789 1.455892239734784 0  2.298330576153535 0.8412935812841518 0  -0.2045887196443677 0.9440246415061334 0  -0.02308697232580337 0.5715348228938091 0  -0.1952893902985752 0.5584533194149995 0  0.4925335180614675 0.2935518745598275 0  -2.457488397186308 -0.1485907679793872 0  -1.05293690943693 -2.227587463738723 0  0.7379368251598651 1.20698769090819 0  -0.1604450137454393 -0.5748283362374303 0  -0.8082072468128376 0.6673879348354805 0  2.010650396633931 -1.397591251623339 0  0.5138874929738693 -0.3091837433225523 0  0.06524650947487896 0.5863344847941419 0  0.4458353252088276 1.099781228106647 0  -0.6006098008615811 1.630430873722895 0  -0.5288307849410533 0.8523812518506673 0  0.8138032632395098 -2.320703380826036 0  -0.4426707330600142 1.996235280693775 0  -0.5224714645911723 0.2747623252840583 0  0.6132804270770258 1.442232305109495 0  0.2471228984904126 0.751127474589491 0  -0.3796369282981906 0.8635536761241049 0  -0.8145192577886532 0.8301194030491461 0  -0.6389071042630297 1.492085055320969 0  -1.125885645773484 -1.267354082169429 0  -0.2676164795963016 0.7509486636036535 0  -0.3374671787028345 0.9774487029381743 0  -0.2857393037089104 -1.029107961274825 0  0.5489515188482416 2.428770706043216 0  0.6187140322041188 1.702700988928199 0  0.6882474728642003 -0.8663174988693458 0  0.4425513992650846 0.6337271957765251 0  -0.5295525567652274 0.6500162138404074 0  -0.9476699534659107 0.4712936002157391 0  0.8752559794743573 -0.5590429865758249 0  -0.9468517635324705 1.010443301372405 0  0.6322198234575112 0.06140152368918773 0  -1.663227701934871 -0.3120622505034063 0  0.638393649556794 0.8514612129035295 0  0.2405035349843025 0.5421729288360547 0  -0.0361088917084853 -0.634750040613719 0  -0.77081623718481 -1.491533805481315 0  0.4791447072839847 1.943078835226914 0  0.06773383579110327 0.9128789875304884 0  1.535552868162399 -1.347785079971206 0  -0.1161160164153445 -1.750338774140298 0  0.4627257681225037 -0.4383171298935182 0  -1.576523019350793 0.337462392451507 0  1.615579064438861 -0.4700726775756261 0  -0.3363568176916215 0.524117609991911 0  0.6496337470908508 0.6309476815480473 0  -0.5889146666661975 1.765765569223172 0  0.2310185371870591 -0.5809076164446545 0  1.689819737179052 0.7144244031104938 0  0.4448302526349333 0.4003351763128259 0  -1.666012317156402 1.141628119832077 0  -0.03897117799051896 2.157739399282022 0  -1.039806706977881 -0.008469356187555704 0  0.5953675849711842 1.292832786609411 0  1.019901375611165 0.9146520079185969 0  1.347683319947915 1.09665078923174 0  -0.6985563858036976 -0.7910624120479965 0  -0.2094919752891609 2.117918811689742 0  0.8613889924343612 0.3204202532371086 0  0.6066073833495678 -0.2052604431648903 0  -0.9396643060473252 -0.4346342465790589 0  -1.468981254193264 -0.7269649821871838 0  1.086822520251991 -0.08895113427640507 0  0.3674971586197148 0.7458155855599822 0  -0.3794300679513336 0.6380326831168662 0  1.043986692092218 2.245230122067591 0  1.601242035983665 0.2613788864633106 0  1.398248342214989 -0.9053027058218581 0  0.9738177402080297 0.5626591991823638 0  -0.3884836309919389 -0.457358287533149 0  -1.481917277537334 1.992889932127602 0  0.5968422411835189 -0.06491050543469785 0  1.270890020739223 0.1630724220674704 0  0.1750096762149981 -0.9451218425404133 0  -2.14382594739437 -1.245853763668495 0  -0.5948972366036021 0.0007219457462337329 0  0.2493325731664089 0.9555925233868314 0  0.01999832336855498 0.7580146038227706 0  -0.4045244859843793 0.43499251370204 0  0.561706624062054 0.2039814239055968 0  -1.758466681615456 -1.772448004860064 0  -0.4031644249033418 1.058173111097124 0  -2.38504553412258 0.511241112114327 0  -0.5341604634149192 1.237299345180669 0  0.9565857174750263 1.182314975627643 0  0.4465257213324729 0.8657010523769808 0  -0.5398263017218177 -0.24974230906837 0  0.4385935124205028 -1.450606430662467 0  -0.6501000342818676 -0.3007683035508803 0  -0.4122469826021566 0.7509933958794207 0  1.117740491137444 1.407300158944901 0  1.879439506543204 1.195802649416873 0  -0.4793047928368628 -0.552238137737468 0  -0.1968525780165699 
[...]
<PointData  Scalars="f_30"> 
<DataArray  type="Float64"  Name="f_30"  format="ascii">5.7391977459265435e+00  0.0000000000000000e+00  1.5000000000000002e+01  5.5513683388538544e+00  5.3898656786984986e+00  5.2558021506042190e+00  5.1489342072113837e+00  5.0710458585139300e+00  5.0175364835006411e+00  4.9982938143756206e+00  5.0067549615374789e+00  5.0429422452522292e+00  5.1067754635452127e+00  5.1990877433448990e+00  5.3190828265942791e+00  5.4672177326361764e+00  5.6420559118417977e+00  5.8425046891541417e+00  6.0663397018631517e+00  6.3070788611036344e+00  6.5549637932469516e+00  6.7909726581104390e+00  6.9881528873367378e+00  7.1138825868042206e+00  7.1405975282970013e+00  7.0627476405734289e+00  6.8962570299144152e+00  6.6757566372382238e+00  6.4308745622561601e+00  6.1850720058548285e+00  5.9516466202255218e+00  0.0000000000000000e+00  0.0000000000000000e+00  0.0000000000000000e+00  0.0000000000000000e+00  0.0000000000000000e+00  0.0000000000000000e+00  0.0000000000000000e+00  0.0000000000000000e+00  0.0000000000000000e+00  0.0000000000000000e+00  0.0000000000000000e+00  0.0000000000000000e+00  0.0000000000000000e+00  0.0000000000000000e+00  0.0000000000000000e+00  0.0000000000000000e+00  0.0000000000000000e+00  0.0000000000000000e+00  0.0000000000000000e+00  0.0000000000000000e+00  0.0000000000000000e+00  0.0000000000000000e+00  1.5000000000000002e+01  1.5000000000000000e+01  1.5000000000000000e+01  1.5000000000000000e+01  1.5000000000000000e+01  1.4999999999999998e+01  1.5000000000000002e+01  1.5000000000000000e+01  1.5000000000000000e+01  1.5000000000000000e+01  1.5000000000000000e+01  1.5000000000000000e+01  1.5000000000000000e+01  1.5000000000000000e+01  1.5000000000000000e+01  1.5000000000000000e+01  1.5000000000000000e+01  1.5000000000000000e+01  1.5000000000000000e+01  1.5000000000000002e+01  1.5000000000000000e+01  1.4999999999999998e+01  1.5000000000000000e+01  1.4999999999999998e+01  1.5000000000000002e+01  1.5000000000000000e+01  1.5000000000000000e+01  1.5000000000000000e+01  1.6218151109916286e+00  5.2038853484142651e+00  4.6294269467395708e+00  3.1254212078054691e+00  1.9346473766159249e+00  7.3367278580595583e+00  4.2085523357907881e+00  8.3544286296262289e+00  1.0190668170780139e+01  9.8726096055215375e+00  1.3648856911736383e+01  7.7095452624826262e+00  9.5927388352194747e+00  1.6384048026782454e+00  1.0107817980720871e+01  1.1774068936402903e+01  4.3805049124375408e+00  1.5162294813054802e+00  1.5454871505463863e+00  8.6445214213530939e+00  1.0991587531535252e+01  3.2924967806062964e+00  4.7454456103454010e+00  4.5415645548331609e+00  8.9657471125409831e+00  1.0229014703408019e+01  1.2089443190973086e+00  4.2378055875668688e+00  1.1089072031371005e+01  1.2361422311910844e+00  8.3621557795411121e+00  6.2636787001216554e+00  5.0424018617967512e+00  1.1338511523200872e+01  1.0401595709736560e+01  5.7482083769423342e+00  8.3933907795291738e+00  9.5446747362221540e+00  1.3931798043103091e+01  1.4077172830042057e+00  4.5817088039851797e+00  1.1561141530488996e+01  6.4841942772652219e+00  4.8986025498887322e+00  6.3965540090500150e+00  1.3535437625691149e+01  5.3416047993306428e+00  9.7412694532296253e+00  4.3345568535649868e+00  3.1918823358810893e+00  1.1320096452914596e+01  7.4770418812531521e+00  1.3573534870247691e+01  1.0259828625114347e+01  8.1771414907445994e+00  8.5030077944006468e+00  9.9520337780271149e+00  6.3986370264835442e+00  8.3391098703690929e+00  1.8938996010462925e+00  3.0171429078194776e+00  1.6447684704112577e+00  8.1303665565343870e+00  1.3592795533119435e+01  1.3314640820160331e+01  1.3771709770171855e+01  1.5916484528592849e+00  1.5914017504347973e+00  6.1094684224463878e+00  1.3482056377762619e+01  8.5627634611834900e+00  1.6434065085560241e+00  1.3436834340428440e+01  1.3284424026511148e+01  6.9946782231026523e+00  5.0843420649222413e+00  8.6337792332801850e+00  1.6064573347515199e+00  4.1377900224597042e+00  1.3524944377155940e+01  5.5783211477317911e+00  1.0430171426838983e+01  8.9073346155643431e+00  7.6655905367970743e+00  5.3732932667032163e+00  4.7224579159432967e+00  1.0381373058678211e+01  7.8685558045814386e+00  8.5994625770961139e+00  1.9502119074095710e+00  4.7926595953620561e+00  8.3002090184542769e+00  1.0964648290147167e+01  1.0307939397579096e+01  8.5630990769963464e+00  8.8237139610296413e+00  6.2989440389528681e+00  1.2931819812570440e+01  4.7242339676377716e+00  8.2657785814010243e+00  1.3318053585677408e+01  1.2951189785512346e+01  4.8059299812754315e+00  4.2891578420719316e+00  8.4468952020748578e+00  3.1589494205962017e+00  4.4400046596797047e+00  1.2927489847915666e+01  5.1123535878129909e+00  4.7743660441058253e+00  1.2918536128804707e+01  9.7331397562685638e+00  4.6699498631231053e+00  1.3092770673742372e+01  4.0417498299692314e+00  1.3363664136737086e+01  3.2661206494850790e+00  3.8832501374178952e+00  8.7842330706747251e+00  6.0621283747906318e+00  6.3974731230635049e+00  4.5095271741456973e+00  8.6937288851312946e+00  3.9796086603764413e+00  9.7700220602996541e+00  1.2880973630873036e+01  8.8450251620662392e+00  4.9974321282326244e+00  8.3923571719864416e+00  1.0137398757724998e+01  1.1270329056591954e+01  1.7917410174812842e+00  5.0623873229315697e+00  4.8656977586129146e+00  8.0453152803095467e+00  1.3434754793236332e+01  1.6273150569703694e+00  1.3419499833117220e+01  7.0278706366407873e+00  9.4844887592207314e+00  1.5346966253237615e+00  1.3493087875996652e+01  8.0362976360372755e+00  1.0628201599210577e+01  1.3408568354021906e+01  1.3432832596637377e+01  1.4783228926123975e+00  7.2467347504024824e+00  1.6701857470242600e+00  6.3301206226974092e+00  5.5890733261898875e+00  8.7490918623680418e+00  1.3505006679560072e+01  5.6645228291073471e+00  1.1942783110841550e+01  9.9232463946519474e+00  4.3174277430122734e+00  2.4470915055370619e+00  1.1775826665734526e+01  1.1866617717922482e+01  1.0348671490271219e+01  3.2038139054559132e+00  8.0355339280638685e+00  2.7503312640502622e+00  1.2151623681288147e+01  8.7613101423708901e+00  7.1541374433545286e+00  6.6198653071245444e+00  9.5354330256332531e+00  6.8332481046649249e+00  6.5299755326820286e+00  6.4740185415234288e+00  1.0106051469368444e+01  5.4682432579695295e+00  1.0581927479896716e+01  1.0340990102939942e+01  8.3499171798033274e+00  6.4076521807215769e+00  1.0361989724098571e+01  2.9864927792262215e+00  3.1007186334575834e+00  9.0089893700230927e+00  2.6030909609887867e+00  1.1661445901702963e+01  1.0294351339345630e+01  1.0394347713948461e+01  3.5276825536685545e+00  2.9474465178337304e+00  3.6393774186456702e+00  3.2416697553601708e+00  2.3795754882658327e+00  1.1631647051375539e+01  1.1678410543366050e+01  6.4930507576469703e+00  3.0330879573177669e+00  1.0674157867279476e+01  7.9554811889946109e+00  1.0359149345228216e+01  1.0473198699877734e+01  6.8665470046460095e+00  1.0881078752113002e+01  2.2486019063834672e+00  5.2872705694809179e+00  2.5241589312743291e+00  7.3741531654542287e+00  3.1126395091588668e+00  1.0107631253577640e+01  7.6182002039248022e+00  5.9396463530421952e+00  1.1805412396918253e+01  3.1027050664924549e+00  1.0591196083282370e+01  1.2059639769674904e+01  1.1927763895297469e+01  1.2870152466305530e+01  1.4999017419493652e+00  4.0850394119987650e+00  6.9164464815080944e+00  7.5797547002480927e+00  1.1679708148679186e+01  9.3838897578980376e+00  4.7915507204984298e+00  6.6947750396036341e+00  4.4670693100931151e+00  3.0570879810558678e+00  6.7934948659896826e+00  9.0415938385185655e+00  3.7347201946079962e+00  8.5870510460558478e+00  7.0892056795000915e+00  1.2198863273275450e+01  1.2622952280853942e+01  5.0659827921459328e+00  7.0303039775065264e+00  1.1527454420454189e+01  6.6067603933251799e+00  1.1856358148813541e+01  3.8841946525285262e+00  3.4263156599627860e+00  1.2683526414040148e+01  5.0533283321367550e+00  1.2978714265722283e+01  8.8713451292843537e+00  6.6405564266555404e+00  1.1848239101544742e+01  5.9119774406121470e+00  1.2958923882624211e+01  1.1748480683200647e+01  7.7747477529728002e+00  1.2954705076826940e+01  1.2993524219048428e+01  3.4841253644672485e+00  1.2554135590986689e+01  4.3630941535225496e+00  3.4338657046159544e+00  5.4768860624004159e+00  6.4505207485767713e+00  5.9936709861844824e+00  5.4837396387701300e+00  5.8545175124242501e+00  5.8954998678409147e+00  6.2961821165463006e+00  5.4130641720402224e+00  5.3120748433630069e+00  6.7373521719708647e+00  5.7702590318720750e+00  5.1984166966524086e+00  5.5961010288442123e+00  6.0034440843646193e+00  5.3803693218558388e+00  5.9137685312653829e+00  6.0881468040982654e+00  5.9185278033899573e+00  5.3556837503288959e+00  5.2586140452687165e+00  6.6145048012020977e+00  5.1393858901860394e+00  5.6112904031620792e+00  6.8141547737862060e+00  5.8557034087012596e+00  5.3643199192884650e+00  5.4676850000647184e+00  5.1249896637230155e+00  6.1357340852134197e+00  5.5241557222458155e+00  6.8880522992067288e+00  5.8842947442527160e+00  5.7463204715799030e+00  5.4265481310208408e+00  5.3204195968415320e+00  5.6505658522325293e+00  6.1966950926914235e+00  6.3788834845571829e+00  6.8788370044978286e+00  6.0714065573892118e+00  6.3542316565093593e+00  6.3009813704037567e+00  6.2673409237279785e+00  6.3242908773705331e+00  5.8194777467365677e+00  6.0905464372442140e+00  5.5978213226002369e+00  5.6826713396114421e+00  6.1699264542812555e+00  5.7937080906916609e+00  5.7248181356296115e+00  6.5605310503183620e+00  6.6260020834291113e+00  5.2543221503733699e+00  5.2705871853458008e+00  5.2037930979449856e+00  6.5411470042434230e+00  6.0977516137735162e+00  6.4572050874391795e+00  5.6780264442740558e+00  6.1569699394269435e+00  6.0528755534025249e+00  6.5325063225565421e+00  5.5104530130245273e+00  6.7435038257745399e+00  5.4409019119801316e+00  5.6423670253981806e+00  5.8975391079240671e+00  5.4534344282742682e+00  5.9944774169811419e+00  5.8688041913824218e+00  5.5988585076674244e+00  </DataArray> 
</PointData> 
</Piece>
</UnstructuredGrid>
</VTKFile>